
                                 *****************
                                 * O   R   C   A *
                                 *****************

                                            #,                                       
                                            ###                                      
                                            ####                                     
                                            #####                                    
                                            ######                                   
                                           ########,                                 
                                     ,,################,,,,,                         
                               ,,#################################,,                 
                          ,,##########################################,,             
                       ,#########################################, ''#####,          
                    ,#############################################,,   '####,        
                  ,##################################################,,,,####,       
                ,###########''''           ''''###############################       
              ,#####''   ,,,,##########,,,,          '''####'''          '####       
            ,##' ,,,,###########################,,,                        '##       
           ' ,,###''''                  '''############,,,                           
         ,,##''                                '''############,,,,        ,,,,,,###''
      ,#''                                            '''#######################'''  
     '                                                          ''''####''''         
             ,#######,   #######,   ,#######,      ##                                
            ,#'     '#,  ##    ##  ,#'     '#,    #''#        ######   ,####,        
            ##       ##  ##   ,#'  ##            #'  '#       #        #'  '#        
            ##       ##  #######   ##           ,######,      #####,   #    #        
            '#,     ,#'  ##    ##  '#,     ,#' ,#      #,         ##   #,  ,#        
             '#######'   ##     ##  '#######'  #'      '#     #####' # '####'        



                  #######################################################
                  #                        -***-                        #
                  #          Department of theory and spectroscopy      #
                  #    Directorship and core code : Frank Neese         #
                  #        Max Planck Institute fuer Kohlenforschung    #
                  #                Kaiser Wilhelm Platz 1               #
                  #                 D-45470 Muelheim/Ruhr               #
                  #                      Germany                        #
                  #                                                     #
                  #                  All rights reserved                #
                  #                        -***-                        #
                  #######################################################


                         Program Version 5.0.4 -  RELEASE  -


 With contributions from (in alphabetic order):
   Daniel Aravena         : Magnetic Suceptibility
   Michael Atanasov       : Ab Initio Ligand Field Theory (pilot matlab implementation)
   Alexander A. Auer      : GIAO ZORA, VPT2 properties, NMR spectrum
   Ute Becker             : Parallelization
   Giovanni Bistoni       : ED, misc. LED, open-shell LED, HFLD
   Martin Brehm           : Molecular dynamics
   Dmytro Bykov           : SCF Hessian
   Vijay G. Chilkuri      : MRCI spin determinant printing, contributions to CSF-ICE
   Dipayan Datta          : RHF DLPNO-CCSD density
   Achintya Kumar Dutta   : EOM-CC, STEOM-CC
   Dmitry Ganyushin       : Spin-Orbit,Spin-Spin,Magnetic field MRCI
   Miquel Garcia          : C-PCM and meta-GGA Hessian, CC/C-PCM, Gaussian charge scheme
   Yang Guo               : DLPNO-NEVPT2, F12-NEVPT2, CIM, IAO-localization
   Andreas Hansen         : Spin unrestricted coupled pair/coupled cluster methods
   Benjamin Helmich-Paris : MC-RPA, TRAH-SCF, COSX integrals
   Lee Huntington         : MR-EOM, pCC
   Robert Izsak           : Overlap fitted RIJCOSX, COSX-SCS-MP3, EOM
   Marcus Kettner         : VPT2
   Christian Kollmar      : KDIIS, OOCD, Brueckner-CCSD(T), CCSD density, CASPT2, CASPT2-K
   Simone Kossmann        : Meta GGA functionals, TD-DFT gradient, OOMP2, MP2 Hessian
   Martin Krupicka        : Initial AUTO-CI
   Lucas Lang             : DCDCAS
   Marvin Lechner         : AUTO-CI (C++ implementation), FIC-MRCC
   Dagmar Lenk            : GEPOL surface, SMD
   Dimitrios Liakos       : Extrapolation schemes; Compound Job, initial MDCI parallelization
   Dimitrios Manganas     : Further ROCIS development; embedding schemes
   Dimitrios Pantazis     : SARC Basis sets
   Anastasios Papadopoulos: AUTO-CI, single reference methods and gradients
   Taras Petrenko         : DFT Hessian,TD-DFT gradient, ASA, ECA, R-Raman, ABS, FL, XAS/XES, NRVS
   Peter Pinski           : DLPNO-MP2, DLPNO-MP2 Gradient
   Christoph Reimann      : Effective Core Potentials
   Marius Retegan         : Local ZFS, SOC
   Christoph Riplinger    : Optimizer, TS searches, QM/MM, DLPNO-CCSD(T), (RO)-DLPNO pert. Triples
   Tobias Risthaus        : Range-separated hybrids, TD-DFT gradient, RPA, STAB
   Michael Roemelt        : Original ROCIS implementation
   Masaaki Saitow         : Open-shell DLPNO-CCSD energy and density
   Barbara Sandhoefer     : DKH picture change effects
   Avijit Sen             : IP-ROCIS
   Kantharuban Sivalingam : CASSCF convergence, NEVPT2, FIC-MRCI
   Bernardo de Souza      : ESD, SOC TD-DFT
   Georgi Stoychev        : AutoAux, RI-MP2 NMR, DLPNO-MP2 response
   Willem Van den Heuvel  : Paramagnetic NMR
   Boris Wezisla          : Elementary symmetry handling
   Frank Wennmohs         : Technical directorship


 We gratefully acknowledge several colleagues who have allowed us to
 interface, adapt or use parts of their codes:
   Stefan Grimme, W. Hujo, H. Kruse, P. Pracht,  : VdW corrections, initial TS optimization,
                  C. Bannwarth, S. Ehlert          DFT functionals, gCP, sTDA/sTD-DF
   Ed Valeev, F. Pavosevic, A. Kumar             : LibInt (2-el integral package), F12 methods
   Garnet Chan, S. Sharma, J. Yang, R. Olivares  : DMRG
   Ulf Ekstrom                                   : XCFun DFT Library
   Mihaly Kallay                                 : mrcc  (arbitrary order and MRCC methods)
   Jiri Pittner, Ondrej Demel                    : Mk-CCSD
   Frank Weinhold                                : gennbo (NPA and NBO analysis)
   Christopher J. Cramer and Donald G. Truhlar   : smd solvation model
   Lars Goerigk                                  : TD-DFT with DH, B97 family of functionals
   V. Asgeirsson, H. Jonsson                     : NEB implementation
   FAccTs GmbH                                   : IRC, NEB, NEB-TS, DLPNO-Multilevel, CI-OPT
                                                   MM, QMMM, 2- and 3-layer-ONIOM, Crystal-QMMM,
                                                   LR-CPCM, SF, NACMEs, symmetry and pop. for TD-DFT,
                                                   nearIR, NL-DFT gradient (VV10), updates on ESD,
                                                   ML-optimized integration grids
   S Lehtola, MJT Oliveira, MAL Marques          : LibXC Library
   Liviu Ungur et al                             : ANISO software


 Your calculation uses the libint2 library for the computation of 2-el integrals
 For citations please refer to: http://libint.valeyev.net

 Your ORCA version has been built with support for libXC version: 5.1.0
 For citations please refer to: https://tddft.org/programs/libxc/

 This ORCA versions uses:
   CBLAS   interface :  Fast vector & matrix operations
   LAPACKE interface :  Fast linear algebra routines
   SCALAPACK package :  Parallel linear algebra routines
   Shared memory     :  Shared parallel matrices
   BLAS/LAPACK       :  OpenBLAS 0.3.15  USE64BITINT DYNAMIC_ARCH NO_AFFINITY SkylakeX SINGLE_THREADED
        Core in use  :  SkylakeX
   Copyright (c) 2011-2014, The OpenBLAS Project


Your calculation utilizes the atom-pairwise dispersion correction
with the Becke-Johnson damping scheme (D3BJ)
Cite in your paper:
S.Grimme, S.Ehrlich, L.Goerigk, J Comput Chem, (2011), 32, 1456–1465 
S.Grimme, J.Antony, S.Ehrlich and H.Krieg, J.Chem.Phys., 132, (2010), 154104 
   

================================================================================

----- Orbital basis set information -----
Your calculation utilizes the basis: def2-SVP
   F. Weigend and R. Ahlrichs, Phys. Chem. Chem. Phys. 7, 3297 (2005).

----- AuxJ basis set information -----
Your calculation utilizes the auxiliary basis: def2/J
   F. Weigend, Phys. Chem. Chem. Phys. 8, 1057 (2006).

================================================================================
                                        WARNINGS
                       Please study these warnings very carefully!
================================================================================


WARNING: your system is open-shell and RHF/RKS was chosen
  ===> : WILL SWITCH to UHF/UKS


INFO   : the flag for use of the SHARK integral package has been found!

================================================================================
                                       INPUT FILE
================================================================================
NAME = 19_1_orca.inp
|  1> ! EnGrad PBE0 RIJCOSX D3BJ def2-SVP def2/J 
|  2> %output 
|  3> xyzfile=True 
|  4> end 
|  5> %scf 
|  6> maxiter 250 
|  7> end
|  8> %output
|  9> Print[P_Hirshfeld] = 1
| 10> end
| 11> % maxcore
| 12> 4000
| 13> *xyz 0 2
| 14> O   -2.33753834   0.54688010   1.75423483 
| 15> O   -0.62146395  -0.30802875   0.91028824 
| 16> C   -0.73531962   0.18747594  -0.45925435 
| 17> C    0.14111568   0.90364660   0.49853694 
| 18> C    1.52369941   0.45208850   0.25285257 
| 19> C    1.50597509  -0.63732953  -0.62642161 
| 20> C    0.11411830  -0.67491690  -1.33390022 
| 21> H   -2.22707227  -0.22315078   2.33967534 
| 22> H   -1.75664208   0.50663055  -0.68279985 
| 23> H   -0.18344214   1.77967493   1.06088259 
| 24> H    2.40917163   0.74743876   0.81252341 
| 25> H    2.19916254  -1.30283210  -0.75650811 
| 26> H    0.28064060  -0.29013265  -2.35408287 
| 27> H   -0.31221249  -1.68732311  -1.41584606 
| 28> *
| 29> 
| 30>                          ****END OF INPUT****
================================================================================

                     *******************************
                     * Energy+Gradient Calculation *
                     *******************************

---------------------------------
CARTESIAN COORDINATES (ANGSTROEM)
---------------------------------
  O     -2.337538    0.546880    1.754235
  O     -0.621464   -0.308029    0.910288
  C     -0.735320    0.187476   -0.459254
  C      0.141116    0.903647    0.498537
  C      1.523699    0.452089    0.252853
  C      1.505975   -0.637330   -0.626422
  C      0.114118   -0.674917   -1.333900
  H     -2.227072   -0.223151    2.339675
  H     -1.756642    0.506631   -0.682800
  H     -0.183442    1.779675    1.060883
  H      2.409172    0.747439    0.812523
  H      2.199163   -1.302832   -0.756508
  H      0.280641   -0.290133   -2.354083
  H     -0.312212   -1.687323   -1.415846

----------------------------
CARTESIAN COORDINATES (A.U.)
----------------------------
  NO LB      ZA    FRAG     MASS         X           Y           Z
   0 O     8.0000    0    15.999   -4.417307    1.033454    3.315023
   1 O     8.0000    0    15.999   -1.174397   -0.582090    1.720195
   2 C     6.0000    0    12.011   -1.389553    0.354278   -0.867865
   3 C     6.0000    0    12.011    0.266670    1.707645    0.942098
   4 C     6.0000    0    12.011    2.879375    0.854323    0.477822
   5 C     6.0000    0    12.011    2.845880   -1.204378   -1.183765
   6 C     6.0000    0    12.011    0.215652   -1.275408   -2.520706
   7 H     1.0000    0     1.008   -4.208557   -0.421694    4.421346
   8 H     1.0000    0     1.008   -3.319572    0.957393   -1.290305
   9 H     1.0000    0     1.008   -0.346655    3.363098    2.004778
  10 H     1.0000    0     1.008    4.552675    1.412455    1.535447
  11 H     1.0000    0     1.008    4.155815   -2.461996   -1.429593
  12 H     1.0000    0     1.008    0.530334   -0.548271   -4.448572
  13 H     1.0000    0     1.008   -0.589996   -3.188579   -2.675561

--------------------------------
INTERNAL COORDINATES (ANGSTROEM)
--------------------------------
 O      0   0   0     0.000000000000     0.00000000     0.00000000
 O      1   0   0     2.094761633359     0.00000000     0.00000000
 C      2   1   0     1.460867864397   100.10328379     0.00000000
 C      3   2   1     1.482701387512    60.80187515    97.51804372
 C      4   3   2     1.475060438693   107.37292672    98.62382640
 C      5   4   3     1.400096025001   109.32549046   350.33159265
 C      3   2   1     1.493409384035   107.99054187   199.35918073
 H      1   2   3     0.973596887589    80.01008935   153.97655305
 H      3   2   1     1.093129371554   111.31920864   340.76979425
 H      4   3   2     1.090410951687   123.04202827   263.86458216
 H      5   4   3     1.088358524394   126.43094829   182.94138079
 H      6   5   4     0.969703567590   127.53212820   200.51722663
 H      7   3   2     1.102978347388   115.22194596   191.86126053
 H      7   3   2     1.101562253003   110.74201541    68.83009346

---------------------------
INTERNAL COORDINATES (A.U.)
---------------------------
 O      0   0   0     0.000000000000     0.00000000     0.00000000
 O      1   0   0     3.958525802895     0.00000000     0.00000000
 C      2   1   0     2.760640181556   100.10328379     0.00000000
 C      3   2   1     2.801899560783    60.80187515    97.51804372
 C      4   3   2     2.787460260112   107.37292672    98.62382640
 C      5   4   3     2.645798048443   109.32549046   350.33159265
 C      3   2   1     2.822134741655   107.99054187   199.35918073
 H      1   2   3     1.839831482382    80.01008935   153.97655305
 H      3   2   1     2.065715141183   111.31920864   340.76979425
 H      4   3   2     2.060578072117   123.04202827   263.86458216
 H      5   4   3     2.056699546622   126.43094829   182.94138079
 H      6   5   4     1.832474173831   127.53212820   200.51722663
 H      7   3   2     2.084327008208   115.22194596   191.86126053
 H      7   3   2     2.081650977642   110.74201541    68.83009346

---------------------
BASIS SET INFORMATION
---------------------
There are 3 groups of distinct atoms

 Group   1 Type O   : 7s4p1d contracted to 3s2p1d pattern {511/31/1}
 Group   2 Type C   : 7s4p1d contracted to 3s2p1d pattern {511/31/1}
 Group   3 Type H   : 4s1p contracted to 2s1p pattern {31/1}

Atom   0O    basis set group =>   1
Atom   1O    basis set group =>   1
Atom   2C    basis set group =>   2
Atom   3C    basis set group =>   2
Atom   4C    basis set group =>   2
Atom   5C    basis set group =>   2
Atom   6C    basis set group =>   2
Atom   7H    basis set group =>   3
Atom   8H    basis set group =>   3
Atom   9H    basis set group =>   3
Atom  10H    basis set group =>   3
Atom  11H    basis set group =>   3
Atom  12H    basis set group =>   3
Atom  13H    basis set group =>   3
---------------------------------
AUXILIARY/J BASIS SET INFORMATION
---------------------------------
There are 3 groups of distinct atoms

 Group   1 Type O   : 12s5p4d2f1g contracted to 6s4p3d1f1g pattern {711111/2111/211/2/1}
 Group   2 Type C   : 12s5p4d2f1g contracted to 6s4p3d1f1g pattern {711111/2111/211/2/1}
 Group   3 Type H   : 5s2p1d contracted to 3s1p1d pattern {311/2/1}

Atom   0O    basis set group =>   1
Atom   1O    basis set group =>   1
Atom   2C    basis set group =>   2
Atom   3C    basis set group =>   2
Atom   4C    basis set group =>   2
Atom   5C    basis set group =>   2
Atom   6C    basis set group =>   2
Atom   7H    basis set group =>   3
Atom   8H    basis set group =>   3
Atom   9H    basis set group =>   3
Atom  10H    basis set group =>   3
Atom  11H    basis set group =>   3
Atom  12H    basis set group =>   3
Atom  13H    basis set group =>   3
------------------------------------------------------------------------------
                           ORCA GTO INTEGRAL CALCULATION
                           -- RI-GTO INTEGRALS CHOSEN --
------------------------------------------------------------------------------
------------------------------------------------------------------------------
                   ___                                                        
                  /   \      - P O W E R E D   B Y -                         
                 /     \                                                     
                 |  |  |   _    _      __       _____    __    __             
                 |  |  |  | |  | |    /  \     |  _  \  |  |  /  |          
                  \  \/   | |  | |   /    \    | | | |  |  | /  /          
                 / \  \   | |__| |  /  /\  \   | |_| |  |  |/  /          
                |  |  |   |  __  | /  /__\  \  |    /   |      \           
                |  |  |   | |  | | |   __   |  |    \   |  |\   \          
                \     /   | |  | | |  |  |  |  | |\  \  |  | \   \       
                 \___/    |_|  |_| |__|  |__|  |_| \__\ |__|  \__/        
                                                                              
                      - O R C A' S   B I G   F R I E N D -                    
                                      &                                       
                       - I N T E G R A L  F E E D E R -                       
                                                                              
 v1 FN, 2020, v2 2021                                                         
------------------------------------------------------------------------------


Reading SHARK input file 19_1_orca.SHARKINP.tmp ... ok
----------------------
SHARK INTEGRAL PACKAGE
----------------------

Number of atoms                             ...     14
Number of basis functions                   ...    133
Number of shells                            ...     63
Maximum angular momentum                    ...      2
Integral batch strategy                     ... SHARK/LIBINT Hybrid
RI-J (if used) integral strategy            ... SPLIT-RIJ (Revised 2003 algorithm where possible)
Printlevel                                  ...      1
Contraction scheme used                     ... SEGMENTED contraction
Coulomb Range Separation                    ... NOT USED
Exchange Range Separation                   ... NOT USED
Finite Nucleus Model                        ... NOT USED
Auxiliary Coulomb fitting basis             ... AVAILABLE
   # of basis functions in Aux-J            ...    420
   # of shells in Aux-J                     ...    140
   Maximum angular momentum in Aux-J        ...      4
Auxiliary J/K fitting basis                 ... NOT available
Auxiliary Correlation fitting basis         ... NOT available
Auxiliary 'external' fitting basis          ... NOT available
Integral threshold                          ...     2.500000e-11
Primitive cut-off                           ...     2.500000e-12
Primitive pair pre-selection threshold      ...     2.500000e-12

Calculating pre-screening integrals         ... done (  0.0 sec) Dimension = 63
Organizing shell pair data                  ... done (  0.0 sec)
Shell pair information
Total number of shell pairs                 ...      2016
Shell pairs after pre-screening             ...      1944
Total number of primitive shell pairs       ...      7252
Primitive shell pairs kept                  ...      5328
          la=0 lb=0:    604 shell pairs
          la=1 lb=0:    711 shell pairs
          la=1 lb=1:    224 shell pairs
          la=2 lb=0:    237 shell pairs
          la=2 lb=1:    141 shell pairs
          la=2 lb=2:     27 shell pairs

Calculating one electron integrals          ... done (  0.0 sec)
Calculating RI/J V-Matrix + Cholesky decomp.... done (  0.0 sec)
Calculating Nuclear repulsion               ... done (  0.0 sec) ENN=    298.002800705210 Eh

SHARK setup successfully completed in   0.1 seconds

Maximum memory used throughout the entire GTOINT-calculation: 16.8 MB
-------------------------------------------------------------------------------
                                 ORCA SCF
-------------------------------------------------------------------------------

------------
SCF SETTINGS
------------
Hamiltonian:
 Density Functional     Method          .... DFT(GTOs)
 Exchange Functional    Exchange        .... PBE
   PBE kappa parameter   XKappa         ....  0.804000
   PBE mue parameter    XMuePBE         ....  0.219520
 Correlation Functional Correlation     .... PBE
   PBE beta parameter  CBetaPBE         ....  0.066725
 LDA part of GGA corr.  LDAOpt          .... PW91-LDA
 Gradients option       PostSCFGGA      .... off
 Hybrid DFT is turned on
   Fraction HF Exchange ScalHFX         ....  0.250000
   Scaling of DF-GGA-X  ScalDFX         ....  0.750000
   Scaling of DF-GGA-C  ScalDFC         ....  1.000000
   Scaling of DF-LDA-C  ScalLDAC        ....  1.000000
   Perturbative correction              ....  0.000000
   Density functional embedding theory  .... OFF
   NL short-range parameter             ....  6.900000
 RI-approximation to the Coulomb term is turned on
   Number of AuxJ basis functions       .... 420
   RIJ-COSX (HFX calculated with COS-X)).... on


General Settings:
 Integral files         IntName         .... 19_1_orca
 Hartree-Fock type      HFTyp           .... UHF
 Total Charge           Charge          ....    0
 Multiplicity           Mult            ....    2
 Number of Electrons    NEL             ....   53
 Basis Dimension        Dim             ....  133
 Nuclear Repulsion      ENuc            ....    298.0028007052 Eh

Convergence Acceleration:
 DIIS                   CNVDIIS         .... on
   Start iteration      DIISMaxIt       ....    12
   Startup error        DIISStart       ....  0.200000
   # of expansion vecs  DIISMaxEq       ....     5
   Bias factor          DIISBfac        ....   1.050
   Max. coefficient     DIISMaxC        ....  10.000
 Trust-Rad. Augm. Hess. CNVTRAH         .... auto
   Auto Start mean grad. ratio tolernc. ....  1.125000
   Auto Start start iteration           ....    20
   Auto Start num. interpolation iter.  ....    10
   Max. Number of Micro iterations      ....    16
   Max. Number of Macro iterations      .... Maxiter - #DIIS iter
   Number of Davidson start vectors     ....     2
   Converg. threshold I  (grad. norm)   ....   1.000e-05
   Converg. threshold II (energy diff.) ....   1.000e-08
   Grad. Scal. Fac. for Micro threshold ....   0.100
   Minimum threshold for Micro iter.    ....   0.010
   NR start threshold (gradient norm)   ....   0.001
   Initial trust radius                 ....   0.400
   Minimum AH scaling param. (alpha)    ....   1.000
   Maximum AH scaling param. (alpha)    .... 1000.000
   Orbital update algorithm             .... Taylor
   White noise on init. David. guess    .... on
   Maximum white noise                  ....   0.010
   Quad. conv. algorithm                .... NR
 SOSCF                  CNVSOSCF        .... off
 Level Shifting         CNVShift        .... on
   Level shift para.    LevelShift      ....    0.2500
   Turn off err/grad.   ShiftErr        ....    0.0010
 Zerner damping         CNVZerner       .... off
 Static damping         CNVDamp         .... on
   Fraction old density DampFac         ....    0.7000
   Max. Damping (<1)    DampMax         ....    0.9800
   Min. Damping (>=0)   DampMin         ....    0.0000
   Turn off err/grad.   DampErr         ....    0.1000
 Fernandez-Rico         CNVRico         .... off

SCF Procedure:
 Maximum # iterations   MaxIter         ....   250
 SCF integral mode      SCFMode         .... Direct
   Integral package                     .... SHARK and LIBINT hybrid scheme
 Reset frequency        DirectResetFreq ....    20
 Integral Threshold     Thresh          ....  2.500e-11 Eh
 Primitive CutOff       TCut            ....  2.500e-12 Eh

Convergence Tolerance:
 Convergence Check Mode ConvCheckMode   .... Total+1el-Energy
 Convergence forced     ConvForced      .... 0
 Energy Change          TolE            ....  1.000e-08 Eh
 1-El. energy change                    ....  1.000e-05 Eh
 DIIS Error             TolErr          ....  5.000e-07


Diagonalization of the overlap matrix:
Smallest eigenvalue                        ... 8.093e-04
Time for diagonalization                   ...    0.003 sec
Threshold for overlap eigenvalues          ... 1.000e-08
Number of eigenvalues below threshold      ... 0
Time for construction of square roots      ...    0.001 sec
Total time needed                          ...    0.004 sec

Time for model grid setup =    0.117 sec

------------------------------
INITIAL GUESS: MODEL POTENTIAL
------------------------------
Loading Hartree-Fock densities                     ... done
Calculating cut-offs                               ... done
Initializing the effective Hamiltonian             ... done
Setting up the integral package (SHARK)            ... done
Starting the Coulomb interaction                   ... done (   0.1 sec)
Reading the grid                                   ... done
Mapping shells                                     ... done
Starting the XC term evaluation                    ... done (   0.1 sec)
  promolecular density results
     # of electrons  =     52.998309244
     EX              =    -43.852646678
     EC              =     -1.751395828
     EX+EC           =    -45.604042506
Transforming the Hamiltonian                       ... done (   0.0 sec)
Diagonalizing the Hamiltonian                      ... done (   0.0 sec)
Back transforming the eigenvectors                 ... done (   0.0 sec)
Now organizing SCF variables                       ... done
                      ------------------
                      INITIAL GUESS DONE (   0.3 sec)
                      ------------------
-------------------
DFT GRID GENERATION
-------------------

General Integration Accuracy     IntAcc      ... 4.388
Radial Grid Type                 RadialGrid  ... OptM3 with GC (2021)
Angular Grid (max. ang.)         AngularGrid ... 4 (Lebedev-302)
Angular grid pruning method      GridPruning ... 4 (adaptive)
Weight generation scheme         WeightScheme... Becke
Basis function cutoff            BFCut       ... 1.0000e-11
Integration weight cutoff        WCut        ... 1.0000e-14
Angular grids for H and He will be reduced by one unit
Partially contracted basis set               ... off
Rotationally invariant grid construction     ... off

Total number of grid points                  ...    64889
Total number of batches                      ...     1019
Average number of points per batch           ...       63
Average number of grid points per atom       ...     4635
Time for grid setup =    0.478 sec

--------------------
COSX GRID GENERATION
--------------------

GRIDX 1
-------
General Integration Accuracy     IntAcc      ... 3.816
Radial Grid Type                 RadialGrid  ... OptM3 with GC (2021)
Angular Grid (max. ang.)         AngularGrid ... 1 (Lebedev-50)
Angular grid pruning method      GridPruning ... 4 (adaptive)
Weight generation scheme         WeightScheme... Becke
Basis function cutoff            BFCut       ... 1.0000e-11
Integration weight cutoff        WCut        ... 1.0000e-14
Angular grids for H and He will be reduced by one unit
Partially contracted basis set               ... on
Rotationally invariant grid construction     ... off

Total number of grid points                  ...     8301
Total number of batches                      ...      136
Average number of points per batch           ...       61
Average number of grid points per atom       ...      593
UseSFitting                                  ... on

GRIDX 2
-------
General Integration Accuracy     IntAcc      ... 4.020
Radial Grid Type                 RadialGrid  ... OptM3 with GC (2021)
Angular Grid (max. ang.)         AngularGrid ... 2 (Lebedev-110)
Angular grid pruning method      GridPruning ... 4 (adaptive)
Weight generation scheme         WeightScheme... Becke
Basis function cutoff            BFCut       ... 1.0000e-11
Integration weight cutoff        WCut        ... 1.0000e-14
Angular grids for H and He will be reduced by one unit
Partially contracted basis set               ... on
Rotationally invariant grid construction     ... off

Total number of grid points                  ...    18050
Total number of batches                      ...      288
Average number of points per batch           ...       62
Average number of grid points per atom       ...     1289
UseSFitting                                  ... on

GRIDX 3
-------
General Integration Accuracy     IntAcc      ... 4.338
Radial Grid Type                 RadialGrid  ... OptM3 with GC (2021)
Angular Grid (max. ang.)         AngularGrid ... 3 (Lebedev-194)
Angular grid pruning method      GridPruning ... 4 (adaptive)
Weight generation scheme         WeightScheme... Becke
Basis function cutoff            BFCut       ... 1.0000e-11
Integration weight cutoff        WCut        ... 1.0000e-14
Angular grids for H and He will be reduced by one unit
Partially contracted basis set               ... on
Rotationally invariant grid construction     ... off

Total number of grid points                  ...    39670
Total number of batches                      ...      626
Average number of points per batch           ...       63
Average number of grid points per atom       ...     2834
UseSFitting                                  ... on

Time for X-Grid setup             =    0.533 sec

--------------
SCF ITERATIONS
--------------
ITER       Energy         Delta-E        Max-DP      RMS-DP      [F,P]     Damp
               ***  Starting incremental Fock matrix formation  ***
  0   -344.1486191589   0.000000000000 0.05577415  0.00139827  0.1586639 0.7000
  1   -344.2389221493  -0.090302990421 0.03887762  0.00093932  0.0608240 0.7000
                               ***Turning on DIIS***
  2   -344.2753593029  -0.036437153586 0.07223598  0.00167004  0.0199852 0.0000
  3   -344.3409761280  -0.065616825052 0.02966971  0.00077848  0.0559197 0.0000
  4   -344.3545245446  -0.013548416676 0.01172101  0.00033238  0.0098543 0.0000
  5   -344.3557111670  -0.001186622368 0.00547995  0.00018889  0.0072738 0.0000
  6   -344.3563856398  -0.000674472757 0.00441015  0.00011246  0.0032291 0.0000
  7   -344.3565961891  -0.000210549328 0.00205395  0.00004969  0.0021986 0.0000
  8   -344.3566647072  -0.000068518145 0.00157258  0.00003542  0.0011820 0.0000
  9   -344.3566926153  -0.000027908083 0.00192069  0.00004426  0.0006955 0.0000
               *** Restarting incremental Fock matrix formation ***
                                   *** Resetting DIIS ***
 10   -344.3567085341  -0.000015918759 0.00026929  0.00000991  0.0001567 0.0000
 11   -344.3567087003  -0.000000166218 0.00017703  0.00000516  0.0002509 0.0000
 12   -344.3567092933  -0.000000593018 0.00011938  0.00000292  0.0000859 0.0000
 13   -344.3567094689  -0.000000175536 0.00022603  0.00000375  0.0000495 0.0000
 14   -344.3567096521  -0.000000183252 0.00024483  0.00000438  0.0000398 0.0000
 15   -344.3567097818  -0.000000129730 0.00011085  0.00000181  0.0000287 0.0000
 16   -344.3567098224  -0.000000040535 0.00014677  0.00000245  0.0000193 0.0000
 17   -344.3567098501  -0.000000027689 0.00005557  0.00000092  0.0000094 0.0000
 18   -344.3567098544  -0.000000004391 0.00003241  0.00000050  0.0000057 0.0000
 19   -344.3567098567  -0.000000002259 0.00001253  0.00000018  0.0000032 0.0000
 20   -344.3567098564   0.000000000282 0.00000462  0.00000008  0.0000027 0.0000
 21   -344.3567098556   0.000000000843 0.00000663  0.00000009  0.0000012 0.0000
                            ***DIIS convergence achieved***

               *****************************************************
               *                     SUCCESS                       *
               *           SCF CONVERGED AFTER  22 CYCLES          *
               *****************************************************

Old exchange energy                            =    -11.176556500 Eh
New exchange energy                            =    -11.176529041 Eh
Exchange energy change after final integration =      0.000027460 Eh
Total energy after final integration           =   -344.356682398 Eh
Final COS-X integration done in                =     4.799 sec

----------------
TOTAL SCF ENERGY
----------------

Total Energy       :         -344.35668240 Eh           -9370.42171 eV

Components:
Nuclear Repulsion  :          298.00280071 Eh            8109.06846 eV
Electronic Energy  :         -642.35948310 Eh          -17479.49018 eV
One Electron Energy:        -1059.32756122 Eh          -28825.76841 eV
Two Electron Energy:          416.96807811 Eh           11346.27824 eV
Max COSX asymmetry :            0.00000056 Eh               0.00002 eV

Virial components:
Potential Energy   :         -685.82398839 Eh          -18662.21949 eV
Kinetic Energy     :          341.46730599 Eh            9291.79778 eV
Virial Ratio       :            2.00846165


DFT components:
N(Alpha)           :       27.000015465913 electrons
N(Beta)            :       26.000015013701 electrons
N(Total)           :       53.000030479614 electrons
E(X)               :      -33.459398304612 Eh       
E(C)               :       -1.767274872998 Eh       
E(XC)              :      -35.226673177609 Eh       
DFET-embed. en.    :        0.000000000000 Eh       

---------------
SCF CONVERGENCE
---------------

  Last Energy change         ...   -2.3575e-09  Tolerance :   1.0000e-08
  Last MAX-Density change    ...    0.0000e+00  Tolerance :   1.0000e-07
  Last RMS-Density change    ...    0.0000e+00  Tolerance :   5.0000e-09
  Last DIIS Error            ...    9.2513e-07  Tolerance :   5.0000e-07

             **** THE GBW FILE WAS UPDATED (19_1_orca.gbw) ****
             **** DENSITY 19_1_orca.scfp WAS UPDATED ****
             **** ENERGY FILE WAS UPDATED (19_1_orca.en.tmp) ****
----------------------
UHF SPIN CONTAMINATION
----------------------

Warning: in a DFT calculation there is little theoretical justification to 
         calculate <S**2> as in Hartree-Fock theory. We will do it anyways
         but you should keep in mind that the values have only limited relevance

Expectation value of <S**2>     :     0.753377
Ideal value S*(S+1) for S=0.5   :     0.750000
Deviation                       :     0.003377

             **** THE GBW FILE WAS UPDATED (19_1_orca.gbw) ****
             **** DENSITY 19_1_orca.scfp WAS UPDATED ****
----------------
ORBITAL ENERGIES
----------------
                 SPIN UP ORBITALS
  NO   OCC          E(Eh)            E(eV) 
   0   1.0000     -19.238760      -523.5133 
   1   1.0000     -19.199235      -522.4377 
   2   1.0000     -10.296941      -280.1940 
   3   1.0000     -10.295370      -280.1513 
   4   1.0000     -10.254130      -279.0291 
   5   1.0000     -10.251625      -278.9609 
   6   1.0000     -10.251120      -278.9472 
   7   1.0000      -1.096669       -29.8419 
   8   1.0000      -0.954450       -25.9719 
   9   1.0000      -0.838578       -22.8189 
  10   1.0000      -0.745251       -20.2793 
  11   1.0000      -0.693403       -18.8685 
  12   1.0000      -0.599870       -16.3233 
  13   1.0000      -0.584228       -15.8976 
  14   1.0000      -0.557430       -15.1684 
  15   1.0000      -0.479108       -13.0372 
  16   1.0000      -0.462751       -12.5921 
  17   1.0000      -0.436343       -11.8735 
  18   1.0000      -0.421831       -11.4786 
  19   1.0000      -0.414679       -11.2840 
  20   1.0000      -0.411528       -11.1982 
  21   1.0000      -0.375362       -10.2141 
  22   1.0000      -0.369764       -10.0618 
  23   1.0000      -0.333196        -9.0667 
  24   1.0000      -0.286699        -7.8015 
  25   1.0000      -0.280829        -7.6417 
  26   1.0000      -0.251244        -6.8367 
  27   0.0000      -0.025266        -0.6875 
  28   0.0000       0.081137         2.2078 
  29   0.0000       0.093629         2.5478 
  30   0.0000       0.108540         2.9535 
  31   0.0000       0.111882         3.0445 
  32   0.0000       0.129931         3.5356 
  33   0.0000       0.140768         3.8305 
  34   0.0000       0.145002         3.9457 
  35   0.0000       0.150788         4.1032 
  36   0.0000       0.162337         4.4174 
  37   0.0000       0.184106         5.0098 
  38   0.0000       0.211442         5.7536 
  39   0.0000       0.295560         8.0426 
  40   0.0000       0.318617         8.6700 
  41   0.0000       0.375723        10.2239 
  42   0.0000       0.401377        10.9220 
  43   0.0000       0.455118        12.3844 
  44   0.0000       0.478717        13.0265 
  45   0.0000       0.480761        13.0822 
  46   0.0000       0.503613        13.7040 
  47   0.0000       0.524999        14.2860 
  48   0.0000       0.542619        14.7654 
  49   0.0000       0.558451        15.1962 
  50   0.0000       0.568715        15.4755 
  51   0.0000       0.594129        16.1671 
  52   0.0000       0.612707        16.6726 
  53   0.0000       0.636749        17.3268 
  54   0.0000       0.644786        17.5455 
  55   0.0000       0.662550        18.0289 
  56   0.0000       0.667524        18.1642 
  57   0.0000       0.684380        18.6229 
  58   0.0000       0.690025        18.7765 
  59   0.0000       0.700104        19.0508 
  60   0.0000       0.707853        19.2616 
  61   0.0000       0.740988        20.1633 
  62   0.0000       0.762260        20.7421 
  63   0.0000       0.781075        21.2541 
  64   0.0000       0.791955        21.5502 
  65   0.0000       0.901540        24.5322 
  66   0.0000       0.940457        25.5911 
  67   0.0000       0.970026        26.3957 
  68   0.0000       0.995964        27.1016 
  69   0.0000       1.025715        27.9111 
  70   0.0000       1.043181        28.3864 
  71   0.0000       1.080361        29.3981 
  72   0.0000       1.097732        29.8708 
  73   0.0000       1.130677        30.7673 
  74   0.0000       1.192786        32.4574 
  75   0.0000       1.216206        33.0946 
  76   0.0000       1.307481        35.5784 
  77   0.0000       1.351435        36.7744 
  78   0.0000       1.430980        38.9390 
  79   0.0000       1.491983        40.5989 
  80   0.0000       1.508592        41.0509 
  81   0.0000       1.529262        41.6133 
  82   0.0000       1.541878        41.9566 
  83   0.0000       1.566751        42.6335 
  84   0.0000       1.601906        43.5901 
  85   0.0000       1.640336        44.6358 
  86   0.0000       1.676268        45.6136 
  87   0.0000       1.680775        45.7362 
  88   0.0000       1.711565        46.5741 
  89   0.0000       1.754076        47.7308 
  90   0.0000       1.778365        48.3918 
  91   0.0000       1.785786        48.5937 
  92   0.0000       1.802588        49.0509 
  93   0.0000       1.856471        50.5171 
  94   0.0000       1.865144        50.7531 
  95   0.0000       1.887314        51.3564 
  96   0.0000       1.936169        52.6858 
  97   0.0000       1.954317        53.1797 
  98   0.0000       2.004289        54.5395 
  99   0.0000       2.030033        55.2400 
 100   0.0000       2.051894        55.8349 
 101   0.0000       2.073159        56.4135 
 102   0.0000       2.111233        57.4496 
 103   0.0000       2.171640        59.0933 
 104   0.0000       2.188035        59.5395 
 105   0.0000       2.219407        60.3931 
 106   0.0000       2.245020        61.0901 
 107   0.0000       2.264182        61.6115 
 108   0.0000       2.301406        62.6244 
 109   0.0000       2.368008        64.4368 
 110   0.0000       2.435705        66.2789 
 111   0.0000       2.482483        67.5518 
 112   0.0000       2.548791        69.3561 
 113   0.0000       2.562985        69.7424 
 114   0.0000       2.628547        71.5264 
 115   0.0000       2.688343        73.1535 
 116   0.0000       2.725485        74.1642 
 117   0.0000       2.743292        74.6488 
 118   0.0000       2.758674        75.0673 
 119   0.0000       2.795695        76.0747 
 120   0.0000       2.842928        77.3600 
 121   0.0000       2.872523        78.1653 
 122   0.0000       2.897889        78.8556 
 123   0.0000       2.946336        80.1739 
 124   0.0000       3.001548        81.6763 
 125   0.0000       3.014304        82.0234 
 126   0.0000       3.078934        83.7821 
 127   0.0000       3.095880        84.2432 
 128   0.0000       3.173008        86.3419 
 129   0.0000       3.307333        89.9971 
 130   0.0000       3.402310        92.5816 
 131   0.0000       3.469734        94.4163 
 132   0.0000       3.748992       102.0153 

                 SPIN DOWN ORBITALS
  NO   OCC          E(Eh)            E(eV) 
   0   1.0000     -19.232462      -523.3419 
   1   1.0000     -19.174586      -521.7670 
   2   1.0000     -10.297103      -280.1984 
   3   1.0000     -10.295535      -280.1558 
   4   1.0000     -10.254102      -279.0283 
   5   1.0000     -10.251585      -278.9598 
   6   1.0000     -10.250966      -278.9430 
   7   1.0000      -1.088004       -29.6061 
   8   1.0000      -0.890907       -24.2428 
   9   1.0000      -0.835268       -22.7288 
  10   1.0000      -0.745169       -20.2771 
  11   1.0000      -0.690367       -18.7858 
  12   1.0000      -0.599057       -16.3012 
  13   1.0000      -0.583330       -15.8732 
  14   1.0000      -0.553858       -15.0712 
  15   1.0000      -0.472846       -12.8668 
  16   1.0000      -0.460789       -12.5387 
  17   1.0000      -0.430563       -11.7162 
  18   1.0000      -0.415035       -11.2937 
  19   1.0000      -0.412295       -11.2191 
  20   1.0000      -0.396494       -10.7891 
  21   1.0000      -0.371307       -10.1038 
  22   1.0000      -0.338148        -9.2015 
  23   1.0000      -0.297055        -8.0833 
  24   1.0000      -0.262885        -7.1535 
  25   1.0000      -0.257534        -7.0078 
  26   0.0000      -0.060621        -1.6496 
  27   0.0000      -0.023718        -0.6454 
  28   0.0000       0.082867         2.2549 
  29   0.0000       0.095781         2.6063 
  30   0.0000       0.109766         2.9869 
  31   0.0000       0.114402         3.1130 
  32   0.0000       0.131129         3.5682 
  33   0.0000       0.141301         3.8450 
  34   0.0000       0.145818         3.9679 
  35   0.0000       0.151493         4.1223 
  36   0.0000       0.166882         4.5411 
  37   0.0000       0.184509         5.0208 
  38   0.0000       0.211933         5.7670 
  39   0.0000       0.295991         8.0543 
  40   0.0000       0.318936         8.6787 
  41   0.0000       0.375854        10.2275 
  42   0.0000       0.401758        10.9324 
  43   0.0000       0.455953        12.4071 
  44   0.0000       0.479199        13.0397 
  45   0.0000       0.481552        13.1037 
  46   0.0000       0.504084        13.7168 
  47   0.0000       0.525421        14.2974 
  48   0.0000       0.544560        14.8182 
  49   0.0000       0.560464        15.2510 
  50   0.0000       0.569434        15.4951 
  51   0.0000       0.594646        16.1811 
  52   0.0000       0.612961        16.6795 
  53   0.0000       0.640696        17.4342 
  54   0.0000       0.646813        17.6007 
  55   0.0000       0.667833        18.1727 
  56   0.0000       0.668570        18.1927 
  57   0.0000       0.685870        18.6635 
  58   0.0000       0.690434        18.7877 
  59   0.0000       0.700995        19.0751 
  60   0.0000       0.708251        19.2725 
  61   0.0000       0.741595        20.1798 
  62   0.0000       0.763363        20.7722 
  63   0.0000       0.781755        21.2726 
  64   0.0000       0.792373        21.5616 
  65   0.0000       0.905628        24.6434 
  66   0.0000       0.960334        26.1320 
  67   0.0000       0.978079        26.6149 
  68   0.0000       1.004238        27.3267 
  69   0.0000       1.053106        28.6565 
  70   0.0000       1.059008        28.8171 
  71   0.0000       1.090566        29.6758 
  72   0.0000       1.107599        30.1393 
  73   0.0000       1.153085        31.3770 
  74   0.0000       1.204235        32.7689 
  75   0.0000       1.218420        33.1549 
  76   0.0000       1.310515        35.6609 
  77   0.0000       1.354802        36.8660 
  78   0.0000       1.436507        39.0894 
  79   0.0000       1.494298        40.6619 
  80   0.0000       1.514205        41.2036 
  81   0.0000       1.532037        41.6888 
  82   0.0000       1.543629        42.0043 
  83   0.0000       1.568473        42.6803 
  84   0.0000       1.606485        43.7147 
  85   0.0000       1.642909        44.7058 
  86   0.0000       1.678640        45.6781 
  87   0.0000       1.684382        45.8344 
  88   0.0000       1.711822        46.5810 
  89   0.0000       1.754724        47.7485 
  90   0.0000       1.780914        48.4611 
  91   0.0000       1.789234        48.6875 
  92   0.0000       1.803972        49.0886 
  93   0.0000       1.856806        50.5263 
  94   0.0000       1.866179        50.7813 
  95   0.0000       1.889025        51.4030 
  96   0.0000       1.936601        52.6976 
  97   0.0000       1.955124        53.2016 
  98   0.0000       2.004796        54.5533 
  99   0.0000       2.031073        55.2683 
 100   0.0000       2.053707        55.8842 
 101   0.0000       2.074493        56.4498 
 102   0.0000       2.111970        57.4696 
 103   0.0000       2.172439        59.1151 
 104   0.0000       2.189039        59.5668 
 105   0.0000       2.220253        60.4162 
 106   0.0000       2.259641        61.4880 
 107   0.0000       2.265414        61.6450 
 108   0.0000       2.302558        62.6558 
 109   0.0000       2.368421        64.4480 
 110   0.0000       2.436286        66.2947 
 111   0.0000       2.483133        67.5695 
 112   0.0000       2.549914        69.3867 
 113   0.0000       2.563876        69.7666 
 114   0.0000       2.632410        71.6315 
 115   0.0000       2.737720        74.4972 
 116   0.0000       2.750204        74.8369 
 117   0.0000       2.754217        74.9460 
 118   0.0000       2.778885        75.6173 
 119   0.0000       2.816206        76.6329 
 120   0.0000       2.862855        77.9022 
 121   0.0000       2.881657        78.4139 
 122   0.0000       2.908682        79.1493 
 123   0.0000       2.954091        80.3849 
 124   0.0000       3.024685        82.3059 
 125   0.0000       3.064772        83.3967 
 126   0.0000       3.080109        83.8140 
 127   0.0000       3.104419        84.4755 
 128   0.0000       3.173651        86.3594 
 129   0.0000       3.315254        90.2127 
 130   0.0000       3.405805        92.6767 
 131   0.0000       3.470363        94.4334 
 132   0.0000       3.771007       102.6143 

                    ********************************
                    * MULLIKEN POPULATION ANALYSIS *
                    ********************************

--------------------------------------------
MULLIKEN ATOMIC CHARGES AND SPIN POPULATIONS
--------------------------------------------
   0 O :   -0.276416    0.878869
   1 O :   -0.334769    0.148405
   2 C :    0.017500   -0.008899
   3 C :    0.085175   -0.008540
   4 C :    0.027525   -0.003340
   5 C :   -0.061302    0.011949
   6 C :    0.074512   -0.000078
   7 H :    0.172186   -0.022916
   8 H :    0.073799    0.002844
   9 H :    0.065517    0.001668
  10 H :    0.039714    0.000231
  11 H :   -0.024379   -0.000548
  12 H :    0.072685    0.000489
  13 H :    0.068255   -0.000134
Sum of atomic charges         :    0.0000000
Sum of atomic spin populations:    1.0000000

-----------------------------------------------------
MULLIKEN REDUCED ORBITAL CHARGES AND SPIN POPULATIONS
-----------------------------------------------------
CHARGE
  0 O s       :     3.860927  s :     3.860927
      pz      :     1.506727  p :     4.408919
      px      :     1.404395
      py      :     1.497797
      dz2     :     0.000457  d :     0.006570
      dxz     :     0.000535
      dyz     :     0.003266
      dx2y2   :     0.001691
      dxy     :     0.000621
  1 O s       :     3.893116  s :     3.893116
      pz      :     1.346359  p :     4.424014
      px      :     1.610795
      py      :     1.466861
      dz2     :     0.005220  d :     0.017638
      dxz     :     0.002441
      dyz     :     0.004571
      dx2y2   :     0.002286
      dxy     :     0.003120
  2 C s       :     3.211705  s :     3.211705
      pz      :     0.762302  p :     2.703067
      px      :     0.996774
      py      :     0.943991
      dz2     :     0.020134  d :     0.067728
      dxz     :     0.015047
      dyz     :     0.016822
      dx2y2   :     0.007242
      dxy     :     0.008483
  3 C s       :     3.189971  s :     3.189971
      pz      :     0.934874  p :     2.660033
      px      :     0.901500
      py      :     0.823659
      dz2     :     0.008039  d :     0.064822
      dxz     :     0.010931
      dyz     :     0.012056
      dx2y2   :     0.015720
      dxy     :     0.018075
  4 C s       :     3.161785  s :     3.161785
      pz      :     0.977204  p :     2.778659
      px      :     0.848704
      py      :     0.952751
      dz2     :     0.005146  d :     0.032031
      dxz     :     0.007765
      dyz     :     0.004453
      dx2y2   :     0.007626
      dxy     :     0.007041
  5 C s       :     3.210686  s :     3.210686
      pz      :     0.972305  p :     2.818662
      px      :     0.935036
      py      :     0.911321
      dz2     :     0.006819  d :     0.031954
      dxz     :     0.005465
      dyz     :     0.004396
      dx2y2   :     0.006429
      dxy     :     0.008844
  6 C s       :     2.964008  s :     2.964008
      pz      :     0.975314  p :     2.927548
      px      :     0.933272
      py      :     1.018962
      dz2     :     0.007510  d :     0.033931
      dxz     :     0.007000
      dyz     :     0.005267
      dx2y2   :     0.007319
      dxy     :     0.006835
  7 H s       :     0.761516  s :     0.761516
      pz      :     0.022202  p :     0.066298
      px      :     0.014745
      py      :     0.029351
  8 H s       :     0.903550  s :     0.903550
      pz      :     0.002517  p :     0.022651
      px      :     0.015237
      py      :     0.004897
  9 H s       :     0.911578  s :     0.911578
      pz      :     0.007574  p :     0.022905
      px      :     0.004187
      py      :     0.011144
 10 H s       :     0.936186  s :     0.936186
      pz      :     0.007645  p :     0.024100
      px      :     0.011501
      py      :     0.004954
 11 H s       :     0.994601  s :     0.994601
      pz      :     0.006455  p :     0.029779
      px      :     0.011668
      py      :     0.011656
 12 H s       :     0.903926  s :     0.903926
      pz      :     0.012944  p :     0.023389
      px      :     0.004721
      py      :     0.005724
 13 H s       :     0.908619  s :     0.908619
      pz      :     0.004421  p :     0.023126
      px      :     0.005467
      py      :     0.013238

SPIN
  0 O s       :     0.011999  s :     0.011999
      pz      :     0.220232  p :     0.866643
      px      :     0.558315
      py      :     0.088096
      dz2     :     0.000033  d :     0.000227
      dxz     :     0.000214
      dyz     :    -0.000100
      dx2y2   :    -0.000003
      dxy     :     0.000083
  1 O s       :     0.007332  s :     0.007332
      pz      :     0.021441  p :     0.140796
      px      :     0.088320
      py      :     0.031035
      dz2     :    -0.000116  d :     0.000277
      dxz     :     0.000302
      dyz     :     0.000041
      dx2y2   :     0.000182
      dxy     :    -0.000131
  2 C s       :    -0.000349  s :    -0.000349
      pz      :    -0.005389  p :    -0.009118
      px      :    -0.001292
      py      :    -0.002438
      dz2     :     0.000159  d :     0.000568
      dxz     :     0.000275
      dyz     :     0.000014
      dx2y2   :    -0.000013
      dxy     :     0.000133
  3 C s       :    -0.000562  s :    -0.000562
      pz      :    -0.002763  p :    -0.008350
      px      :    -0.001668
      py      :    -0.003919
      dz2     :     0.000028  d :     0.000372
      dxz     :    -0.000008
      dyz     :    -0.000000
      dx2y2   :     0.000357
      dxy     :    -0.000005
  4 C s       :    -0.000800  s :    -0.000800
      pz      :    -0.001706  p :    -0.002593
      px      :     0.001127
      py      :    -0.002014
      dz2     :     0.000006  d :     0.000053
      dxz     :     0.000005
      dyz     :     0.000006
      dx2y2   :     0.000027
      dxy     :     0.000009
  5 C s       :     0.002132  s :     0.002132
      pz      :     0.004441  p :     0.009860
      px      :     0.001892
      py      :     0.003528
      dz2     :    -0.000009  d :    -0.000043
      dxz     :    -0.000004
      dyz     :    -0.000012
      dx2y2   :    -0.000013
      dxy     :    -0.000004
  6 C s       :    -0.000335  s :    -0.000335
      pz      :     0.000185  p :     0.000228
      px      :    -0.000358
      py      :     0.000401
      dz2     :    -0.000016  d :     0.000029
      dxz     :     0.000027
      dyz     :    -0.000000
      dx2y2   :    -0.000009
      dxy     :     0.000026
  7 H s       :    -0.028041  s :    -0.028041
      pz      :     0.001873  p :     0.005125
      px      :     0.003265
      py      :    -0.000013
  8 H s       :     0.002917  s :     0.002917
      pz      :    -0.000038  p :    -0.000073
      px      :    -0.000024
      py      :    -0.000011
  9 H s       :     0.001740  s :     0.001740
      pz      :    -0.000038  p :    -0.000072
      px      :    -0.000012
      py      :    -0.000022
 10 H s       :     0.000230  s :     0.000230
      pz      :     0.000015  p :     0.000001
      px      :    -0.000003
      py      :    -0.000011
 11 H s       :    -0.000667  s :    -0.000667
      pz      :     0.000053  p :     0.000119
      px      :     0.000026
      py      :     0.000040
 12 H s       :     0.000481  s :     0.000481
      pz      :    -0.000005  p :     0.000008
      px      :     0.000008
      py      :     0.000005
 13 H s       :    -0.000130  s :    -0.000130
      pz      :    -0.000001  p :    -0.000005
      px      :    -0.000004
      py      :     0.000000


                     *******************************
                     * LOEWDIN POPULATION ANALYSIS *
                     *******************************

-------------------------------------------
LOEWDIN ATOMIC CHARGES AND SPIN POPULATIONS
-------------------------------------------
   0 O :   -0.176370    0.838895
   1 O :   -0.144957    0.159555
   2 C :    0.073788   -0.004788
   3 C :    0.072328   -0.005936
   4 C :   -0.046529   -0.001779
   5 C :    0.029414    0.008919
   6 C :   -0.045877    0.000721
   7 H :    0.050550    0.001903
   8 H :    0.033715    0.001356
   9 H :    0.034111    0.000732
  10 H :    0.031921    0.000159
  11 H :   -0.004876    0.000120
  12 H :    0.046867    0.000255
  13 H :    0.045915   -0.000109

----------------------------------------------------
LOEWDIN REDUCED ORBITAL CHARGES AND SPIN POPULATIONS
----------------------------------------------------
CHARGE
  0 O s       :     3.683283  s :     3.683283
      pz      :     1.528950  p :     4.481112
      px      :     1.393148
      py      :     1.559014
      dz2     :     0.000256  d :     0.011976
      dxz     :     0.000722
      dyz     :     0.006948
      dx2y2   :     0.003255
      dxy     :     0.000795
  1 O s       :     3.599574  s :     3.599574
      pz      :     1.399778  p :     4.516978
      px      :     1.604458
      py      :     1.512742
      dz2     :     0.008198  d :     0.028404
      dxz     :     0.003653
      dyz     :     0.008177
      dx2y2   :     0.003384
      dxy     :     0.004992
  2 C s       :     2.866666  s :     2.866666
      pz      :     0.853017  p :     2.910826
      px      :     1.058248
      py      :     0.999560
      dz2     :     0.040586  d :     0.148720
      dxz     :     0.035585
      dyz     :     0.037265
      dx2y2   :     0.015080
      dxy     :     0.020204
  3 C s       :     2.871135  s :     2.871135
      pz      :     1.006466  p :     2.913006
      px      :     0.993253
      py      :     0.913286
      dz2     :     0.017131  d :     0.143531
      dxz     :     0.025336
      dyz     :     0.026853
      dx2y2   :     0.036532
      dxy     :     0.037680
  4 C s       :     2.890838  s :     2.890838
      pz      :     1.019591  p :     3.073453
      px      :     1.025469
      py      :     1.028393
      dz2     :     0.011356  d :     0.082237
      dxz     :     0.019456
      dyz     :     0.012643
      dx2y2   :     0.021375
      dxy     :     0.017407
  5 C s       :     2.873123  s :     2.873123
      pz      :     0.988273  p :     3.017568
      px      :     1.003253
      py      :     1.026042
      dz2     :     0.014003  d :     0.079896
      dxz     :     0.013188
      dyz     :     0.013072
      dx2y2   :     0.018403
      dxy     :     0.021230
  6 C s       :     2.847978  s :     2.847978
      pz      :     1.041381  p :     3.111319
      px      :     1.011868
      py      :     1.058070
      dz2     :     0.019316  d :     0.086580
      dxz     :     0.018350
      dyz     :     0.012973
      dx2y2   :     0.019135
      dxy     :     0.016806
  7 H s       :     0.768514  s :     0.768514
      pz      :     0.062028  p :     0.180936
      px      :     0.038530
      py      :     0.080378
  8 H s       :     0.893885  s :     0.893885
      pz      :     0.010711  p :     0.072399
      px      :     0.044905
      py      :     0.016784
  9 H s       :     0.893690  s :     0.893690
      pz      :     0.023104  p :     0.072198
      px      :     0.015043
      py      :     0.034052
 10 H s       :     0.896250  s :     0.896250
      pz      :     0.022574  p :     0.071830
      px      :     0.034140
      py      :     0.015116
 11 H s       :     0.908974  s :     0.908974
      pz      :     0.023613  p :     0.095902
      px      :     0.037564
      py      :     0.034725
 12 H s       :     0.885286  s :     0.885286
      pz      :     0.037719  p :     0.067848
      px      :     0.013964
      py      :     0.016164
 13 H s       :     0.886303  s :     0.886303
      pz      :     0.012809  p :     0.067783
      px      :     0.017045
      py      :     0.037930

SPIN
  0 O s       :     0.009945  s :     0.009945
      pz      :     0.210482  p :     0.828883
      px      :     0.538869
      py      :     0.079532
      dz2     :    -0.000002  d :     0.000067
      dxz     :     0.000219
      dyz     :    -0.000209
      dx2y2   :     0.000070
      dxy     :    -0.000011
  1 O s       :     0.011504  s :     0.011504
      pz      :     0.021960  p :     0.147673
      px      :     0.094347
      py      :     0.031366
      dz2     :    -0.000140  d :     0.000377
      dxz     :     0.000341
      dyz     :     0.000042
      dx2y2   :     0.000185
      dxy     :    -0.000052
  2 C s       :    -0.000504  s :    -0.000504
      pz      :    -0.003171  p :    -0.005861
      px      :    -0.000494
      py      :    -0.002195
      dz2     :     0.000609  d :     0.001577
      dxz     :     0.000688
      dyz     :     0.000045
      dx2y2   :    -0.000005
      dxy     :     0.000241
  3 C s       :    -0.000541  s :    -0.000541
      pz      :    -0.002449  p :    -0.006403
      px      :    -0.000648
      py      :    -0.003306
      dz2     :     0.000029  d :     0.001008
      dxz     :     0.000020
      dyz     :     0.000061
      dx2y2   :     0.000820
      dxy     :     0.000078
  4 C s       :     0.000042  s :     0.000042
      pz      :    -0.000998  p :    -0.001974
      px      :     0.000797
      py      :    -0.001772
      dz2     :     0.000015  d :     0.000152
      dxz     :    -0.000003
      dyz     :     0.000010
      dx2y2   :     0.000096
      dxy     :     0.000034
  5 C s       :     0.000630  s :     0.000630
      pz      :     0.003965  p :     0.008390
      px      :     0.002004
      py      :     0.002420
      dz2     :    -0.000031  d :    -0.000101
      dxz     :     0.000005
      dyz     :    -0.000011
      dx2y2   :    -0.000031
      dxy     :    -0.000033
  6 C s       :     0.000212  s :     0.000212
      pz      :     0.000311  p :     0.000423
      px      :    -0.000115
      py      :     0.000228
      dz2     :    -0.000005  d :     0.000085
      dxz     :     0.000064
      dyz     :    -0.000001
      dx2y2   :    -0.000019
      dxy     :     0.000047
  7 H s       :    -0.018722  s :    -0.018722
      pz      :     0.007411  p :     0.020624
      px      :     0.011194
      py      :     0.002020
  8 H s       :     0.001570  s :     0.001570
      pz      :    -0.000162  p :    -0.000214
      px      :     0.000005
      py      :    -0.000057
  9 H s       :     0.000960  s :     0.000960
      pz      :    -0.000085  p :    -0.000229
      px      :    -0.000028
      py      :    -0.000116
 10 H s       :     0.000181  s :     0.000181
      pz      :    -0.000001  p :    -0.000023
      px      :     0.000012
      py      :    -0.000034
 11 H s       :    -0.000289  s :    -0.000289
      pz      :     0.000189  p :     0.000409
      px      :     0.000113
      py      :     0.000106
 12 H s       :     0.000217  s :     0.000217
      pz      :     0.000009  p :     0.000038
      px      :     0.000016
      py      :     0.000013
 13 H s       :    -0.000100  s :    -0.000100
      pz      :     0.000006  p :    -0.000009
      px      :    -0.000013
      py      :    -0.000002


                      *****************************
                      * MAYER POPULATION ANALYSIS *
                      *****************************

  NA   - Mulliken gross atomic population
  ZA   - Total nuclear charge
  QA   - Mulliken gross atomic charge
  VA   - Mayer's total valence
  BVA  - Mayer's bonded valence
  FA   - Mayer's free valence

  ATOM       NA         ZA         QA         VA         BVA        FA
  0 O      8.2764     8.0000    -0.2764     2.0199     1.2940     0.7259
  1 O      8.3348     8.0000    -0.3348     2.0783     2.0558     0.0224
  2 C      5.9825     6.0000     0.0175     3.9686     3.9685     0.0001
  3 C      5.9148     6.0000     0.0852     3.8933     3.8932     0.0001
  4 C      5.9725     6.0000     0.0275     3.7619     3.7619     0.0000
  5 C      6.0613     6.0000    -0.0613     3.9635     3.9634     0.0001
  6 C      5.9255     6.0000     0.0745     3.8061     3.8061     0.0000
  7 H      0.8278     1.0000     0.1722     1.0105     1.0094     0.0011
  8 H      0.9262     1.0000     0.0738     1.0107     1.0107     0.0000
  9 H      0.9345     1.0000     0.0655     1.0109     1.0109     0.0000
 10 H      0.9603     1.0000     0.0397     0.9884     0.9884     0.0000
 11 H      1.0244     1.0000    -0.0244     1.0031     1.0031     0.0000
 12 H      0.9273     1.0000     0.0727     0.9774     0.9774     0.0000
 13 H      0.9317     1.0000     0.0683     0.9814     0.9814     0.0000

  Mayer bond orders larger than 0.100000
B(  0-O ,  1-O ) :   0.2071 B(  0-O ,  7-H ) :   0.9848 B(  1-O ,  2-C ) :   0.9052 
B(  1-O ,  3-C ) :   0.8688 B(  2-C ,  3-C ) :   1.0239 B(  2-C ,  6-C ) :   1.0051 
B(  2-C ,  8-H ) :   0.9581 B(  3-C ,  4-C ) :   0.9881 B(  3-C ,  9-H ) :   0.9704 
B(  4-C ,  5-C ) :   1.8060 B(  4-C , 10-H ) :   0.9947 B(  5-C ,  6-C ) :   1.0033 
B(  5-C , 11-H ) :   1.0009 B(  6-C , 12-H ) :   0.9287 B(  6-C , 13-H ) :   0.9302 



------------------
HIRSHFELD ANALYSIS
------------------

Total integrated alpha density =     27.000015466
Total integrated beta density  =     26.000015013

  ATOM     CHARGE      SPIN    
   0 O   -0.262914    0.808726
   1 O   -0.145998    0.158441
   2 C    0.056590    0.000462
   3 C    0.048616   -0.000912
   4 C   -0.043528   -0.000065
   5 C   -0.016330    0.008267
   6 C   -0.038726    0.001560
   7 H    0.137064    0.020109
   8 H    0.052899    0.001597
   9 H    0.054482    0.000849
  10 H    0.041875    0.000088
  11 H    0.038360    0.000560
  12 H    0.038043    0.000318
  13 H    0.039538    0.000003

  TOTAL  -0.000030    1.000000

-------
TIMINGS
-------

Total SCF time: 0 days 0 hours 0 min 58 sec 

Total time                  ....      58.285 sec
Sum of individual times     ....      58.133 sec  ( 99.7%)

Fock matrix formation       ....      56.332 sec  ( 96.6%)
  Split-RI-J                ....       3.605 sec  (  6.4% of F)
  Chain of spheres X        ....      38.644 sec  ( 68.6% of F)
  XC integration            ....      14.087 sec  ( 25.0% of F)
    Basis function eval.    ....       4.173 sec  ( 29.6% of XC)
    Density eval.           ....       3.871 sec  ( 27.5% of XC)
    XC-Functional eval.     ....       1.403 sec  ( 10.0% of XC)
    XC-Potential eval.      ....       4.301 sec  ( 30.5% of XC)
Diagonalization             ....       0.090 sec  (  0.2%)
Density matrix formation    ....       0.008 sec  (  0.0%)
Population analysis         ....       0.342 sec  (  0.6%)
Initial guess               ....       0.212 sec  (  0.4%)
Orbital Transformation      ....       0.000 sec  (  0.0%)
Orbital Orthonormalization  ....       0.000 sec  (  0.0%)
DIIS solution               ....       0.023 sec  (  0.0%)
Grid generation             ....       1.127 sec  (  1.9%)

Maximum memory used throughout the entire SCF-calculation: 63.5 MB


-------------------------------------------------------------------------------
                          DFT DISPERSION CORRECTION                            
                                                                               
                              DFTD3 V3.1  Rev 1                                
                          USING Becke-Johnson damping                          
-------------------------------------------------------------------------------
The PBE0 functional is recognized
Active option DFTDOPT                   ...         4   

molecular C6(AA) [au] = 1745.753769 


            DFT-D V3
 parameters
 s6 scaling factor         :     1.0000 
 a1 scaling factor         :     0.4145 
 s8 scaling factor         :     1.2177 
 a2 scaling factor         :     4.8593 
 ad hoc parameters k1-k3   :    16.0000     1.3333    -4.0000 

 Edisp/kcal,au: -6.126854376615  -0.009763762901 
 E6   /kcal   :  -3.896572068 
 E8   /kcal   :  -2.230282309 
 % E8         :  36.401751568 

-------------------------   ----------------
Dispersion correction           -0.009763763
-------------------------   ----------------


-------------------------   --------------------
FINAL SINGLE POINT ENERGY      -344.366446161127
-------------------------   --------------------

------------------------------------------------------------------------------
                         ORCA SCF GRADIENT CALCULATION
------------------------------------------------------------------------------

 ... reading COSX grid (gridx3)
Gradient of the Kohn-Sham DFT energy:
Kohn-Sham wavefunction type      ... UKS
Hartree-Fock exchange scaling    ...    0.250
Number of operators              ...    2
Number of atoms                  ...   14
Basis set dimensions             ...  133
Integral neglect threshold       ... 2.5e-11
Integral primitive cutoff        ... 2.5e-12
SHARK Integral package           ... ON

Nuc. rep. gradient       (SHARK) ... done (  0.0 sec)
HCore & Overlap gradient (SHARK) ... done (  0.1 sec)
RI-J gradient            (SHARK) ... done (  0.6 sec)
COSX-gradient                    ... done (  6.6 sec)
Exchange-correlation gradient    ... done
Dispersion correction            ... done

------------------
CARTESIAN GRADIENT
------------------

   1   O   :    0.010985387   -0.003338892   -0.007515595
   2   O   :   -0.009078637   -0.021460697    0.024606151
   3   C   :   -0.004111425    0.007813070   -0.029445699
   4   C   :    0.012673358    0.022773800   -0.003428942
   5   C   :   -0.009320092    0.051247136    0.032738650
   6   C   :    0.115149548   -0.133693068   -0.039061668
   7   C   :   -0.028639759    0.010464208   -0.005329664
   8   H   :    0.001665205   -0.003624032    0.001618180
   9   H   :   -0.002401776   -0.002145144    0.004001275
  10   H   :   -0.002456460   -0.002540825    0.002287695
  11   H   :    0.000632125   -0.002673834   -0.003772564
  12   H   :   -0.090675641    0.078169619    0.021400918
  13   H   :    0.006624177   -0.001426440    0.001274502
  14   H   :   -0.001145962    0.000496605    0.000713590

Difference to translation invariance:
           :   -0.0000999508    0.0000615057    0.0000868282

Difference to rotation invariance:
           :   -0.0005870214    0.0000831402   -0.0001988239

Norm of the cartesian gradient     ...    0.2351584831
RMS gradient                       ...    0.0362857417
MAX gradient                       ...    0.1336930684

-------
TIMINGS
-------

Total SCF gradient time            ...       11.000 sec

One electron gradient       ....       0.096 sec  (  0.9%)
RI-J Coulomb gradient       ....       0.590 sec  (  5.4%)
COSX gradient               ....       6.573 sec  ( 59.8%)
XC gradient                 ....       3.448 sec  ( 31.3%)

Maximum memory used throughout the entire SCFGRAD-calculation: 50.3 MB

                            ***************************************
                            *     ORCA property calculations      *
                            ***************************************

                                    ---------------------
                                    Active property flags
                                    ---------------------
   (+) Dipole Moment


------------------------------------------------------------------------------
                       ORCA ELECTRIC PROPERTIES CALCULATION
------------------------------------------------------------------------------

Dipole Moment Calculation                       ... on
Quadrupole Moment Calculation                   ... off
Polarizability Calculation                      ... off
GBWName                                         ... 19_1_orca.gbw
Electron density                                ... 19_1_orca.scfp
The origin for moment calculation is the CENTER OF MASS  = (-0.310891,  0.116730  0.411640)

-------------
DIPOLE MOMENT
-------------
                                X             Y             Z
Electronic contribution:     -0.75500       0.59914       1.79028
Nuclear contribution   :      1.42581      -0.84461      -2.33215
                        -----------------------------------------
Total Dipole Moment    :      0.67080      -0.24547      -0.54187
                        -----------------------------------------
Magnitude (a.u.)       :      0.89658
Magnitude (Debye)      :      2.27893



--------------------
Rotational spectrum 
--------------------
 
Rotational constants in cm-1:     0.201875     0.066726     0.057057 
Rotational constants in MHz :  6052.073649  2000.392523  1710.512960 

 Dipole components along the rotational axes: 
x,y,z [a.u.] :     0.891605     0.087939     0.034205 
x,y,z [Debye]:     2.266279     0.223523     0.086942 

 

Timings for individual modules:

Sum of individual times         ...       69.491 sec (=   1.158 min)
GTO integral calculation        ...        0.156 sec (=   0.003 min)   0.2 %
SCF iterations                  ...       58.308 sec (=   0.972 min)  83.9 %
SCF Gradient evaluation         ...       11.027 sec (=   0.184 min)  15.9 %
                             ****ORCA TERMINATED NORMALLY****
TOTAL RUN TIME: 0 days 0 hours 1 minutes 9 seconds 643 msec
