
                                 *****************
                                 * O   R   C   A *
                                 *****************

                                            #,                                       
                                            ###                                      
                                            ####                                     
                                            #####                                    
                                            ######                                   
                                           ########,                                 
                                     ,,################,,,,,                         
                               ,,#################################,,                 
                          ,,##########################################,,             
                       ,#########################################, ''#####,          
                    ,#############################################,,   '####,        
                  ,##################################################,,,,####,       
                ,###########''''           ''''###############################       
              ,#####''   ,,,,##########,,,,          '''####'''          '####       
            ,##' ,,,,###########################,,,                        '##       
           ' ,,###''''                  '''############,,,                           
         ,,##''                                '''############,,,,        ,,,,,,###''
      ,#''                                            '''#######################'''  
     '                                                          ''''####''''         
             ,#######,   #######,   ,#######,      ##                                
            ,#'     '#,  ##    ##  ,#'     '#,    #''#        ######   ,####,        
            ##       ##  ##   ,#'  ##            #'  '#       #        #'  '#        
            ##       ##  #######   ##           ,######,      #####,   #    #        
            '#,     ,#'  ##    ##  '#,     ,#' ,#      #,         ##   #,  ,#        
             '#######'   ##     ##  '#######'  #'      '#     #####' # '####'        



                  #######################################################
                  #                        -***-                        #
                  #          Department of theory and spectroscopy      #
                  #    Directorship and core code : Frank Neese         #
                  #        Max Planck Institute fuer Kohlenforschung    #
                  #                Kaiser Wilhelm Platz 1               #
                  #                 D-45470 Muelheim/Ruhr               #
                  #                      Germany                        #
                  #                                                     #
                  #                  All rights reserved                #
                  #                        -***-                        #
                  #######################################################


                         Program Version 5.0.4 -  RELEASE  -


 With contributions from (in alphabetic order):
   Daniel Aravena         : Magnetic Suceptibility
   Michael Atanasov       : Ab Initio Ligand Field Theory (pilot matlab implementation)
   Alexander A. Auer      : GIAO ZORA, VPT2 properties, NMR spectrum
   Ute Becker             : Parallelization
   Giovanni Bistoni       : ED, misc. LED, open-shell LED, HFLD
   Martin Brehm           : Molecular dynamics
   Dmytro Bykov           : SCF Hessian
   Vijay G. Chilkuri      : MRCI spin determinant printing, contributions to CSF-ICE
   Dipayan Datta          : RHF DLPNO-CCSD density
   Achintya Kumar Dutta   : EOM-CC, STEOM-CC
   Dmitry Ganyushin       : Spin-Orbit,Spin-Spin,Magnetic field MRCI
   Miquel Garcia          : C-PCM and meta-GGA Hessian, CC/C-PCM, Gaussian charge scheme
   Yang Guo               : DLPNO-NEVPT2, F12-NEVPT2, CIM, IAO-localization
   Andreas Hansen         : Spin unrestricted coupled pair/coupled cluster methods
   Benjamin Helmich-Paris : MC-RPA, TRAH-SCF, COSX integrals
   Lee Huntington         : MR-EOM, pCC
   Robert Izsak           : Overlap fitted RIJCOSX, COSX-SCS-MP3, EOM
   Marcus Kettner         : VPT2
   Christian Kollmar      : KDIIS, OOCD, Brueckner-CCSD(T), CCSD density, CASPT2, CASPT2-K
   Simone Kossmann        : Meta GGA functionals, TD-DFT gradient, OOMP2, MP2 Hessian
   Martin Krupicka        : Initial AUTO-CI
   Lucas Lang             : DCDCAS
   Marvin Lechner         : AUTO-CI (C++ implementation), FIC-MRCC
   Dagmar Lenk            : GEPOL surface, SMD
   Dimitrios Liakos       : Extrapolation schemes; Compound Job, initial MDCI parallelization
   Dimitrios Manganas     : Further ROCIS development; embedding schemes
   Dimitrios Pantazis     : SARC Basis sets
   Anastasios Papadopoulos: AUTO-CI, single reference methods and gradients
   Taras Petrenko         : DFT Hessian,TD-DFT gradient, ASA, ECA, R-Raman, ABS, FL, XAS/XES, NRVS
   Peter Pinski           : DLPNO-MP2, DLPNO-MP2 Gradient
   Christoph Reimann      : Effective Core Potentials
   Marius Retegan         : Local ZFS, SOC
   Christoph Riplinger    : Optimizer, TS searches, QM/MM, DLPNO-CCSD(T), (RO)-DLPNO pert. Triples
   Tobias Risthaus        : Range-separated hybrids, TD-DFT gradient, RPA, STAB
   Michael Roemelt        : Original ROCIS implementation
   Masaaki Saitow         : Open-shell DLPNO-CCSD energy and density
   Barbara Sandhoefer     : DKH picture change effects
   Avijit Sen             : IP-ROCIS
   Kantharuban Sivalingam : CASSCF convergence, NEVPT2, FIC-MRCI
   Bernardo de Souza      : ESD, SOC TD-DFT
   Georgi Stoychev        : AutoAux, RI-MP2 NMR, DLPNO-MP2 response
   Willem Van den Heuvel  : Paramagnetic NMR
   Boris Wezisla          : Elementary symmetry handling
   Frank Wennmohs         : Technical directorship


 We gratefully acknowledge several colleagues who have allowed us to
 interface, adapt or use parts of their codes:
   Stefan Grimme, W. Hujo, H. Kruse, P. Pracht,  : VdW corrections, initial TS optimization,
                  C. Bannwarth, S. Ehlert          DFT functionals, gCP, sTDA/sTD-DF
   Ed Valeev, F. Pavosevic, A. Kumar             : LibInt (2-el integral package), F12 methods
   Garnet Chan, S. Sharma, J. Yang, R. Olivares  : DMRG
   Ulf Ekstrom                                   : XCFun DFT Library
   Mihaly Kallay                                 : mrcc  (arbitrary order and MRCC methods)
   Jiri Pittner, Ondrej Demel                    : Mk-CCSD
   Frank Weinhold                                : gennbo (NPA and NBO analysis)
   Christopher J. Cramer and Donald G. Truhlar   : smd solvation model
   Lars Goerigk                                  : TD-DFT with DH, B97 family of functionals
   V. Asgeirsson, H. Jonsson                     : NEB implementation
   FAccTs GmbH                                   : IRC, NEB, NEB-TS, DLPNO-Multilevel, CI-OPT
                                                   MM, QMMM, 2- and 3-layer-ONIOM, Crystal-QMMM,
                                                   LR-CPCM, SF, NACMEs, symmetry and pop. for TD-DFT,
                                                   nearIR, NL-DFT gradient (VV10), updates on ESD,
                                                   ML-optimized integration grids
   S Lehtola, MJT Oliveira, MAL Marques          : LibXC Library
   Liviu Ungur et al                             : ANISO software


 Your calculation uses the libint2 library for the computation of 2-el integrals
 For citations please refer to: http://libint.valeyev.net

 Your ORCA version has been built with support for libXC version: 5.1.0
 For citations please refer to: https://tddft.org/programs/libxc/

 This ORCA versions uses:
   CBLAS   interface :  Fast vector & matrix operations
   LAPACKE interface :  Fast linear algebra routines
   SCALAPACK package :  Parallel linear algebra routines
   Shared memory     :  Shared parallel matrices
   BLAS/LAPACK       :  OpenBLAS 0.3.15  USE64BITINT DYNAMIC_ARCH NO_AFFINITY SkylakeX SINGLE_THREADED
        Core in use  :  SkylakeX
   Copyright (c) 2011-2014, The OpenBLAS Project


Your calculation utilizes the atom-pairwise dispersion correction
with the Becke-Johnson damping scheme (D3BJ)
Cite in your paper:
S.Grimme, S.Ehrlich, L.Goerigk, J Comput Chem, (2011), 32, 1456–1465 
S.Grimme, J.Antony, S.Ehrlich and H.Krieg, J.Chem.Phys., 132, (2010), 154104 
   

================================================================================

----- Orbital basis set information -----
Your calculation utilizes the basis: def2-SVP
   F. Weigend and R. Ahlrichs, Phys. Chem. Chem. Phys. 7, 3297 (2005).

----- AuxJ basis set information -----
Your calculation utilizes the auxiliary basis: def2/J
   F. Weigend, Phys. Chem. Chem. Phys. 8, 1057 (2006).

================================================================================
                                        WARNINGS
                       Please study these warnings very carefully!
================================================================================


WARNING: Geometry Optimization
  ===> : Switching off AutoStart
         For restart on a previous wavefunction, please use MOREAD

INFO   : the flag for use of the SHARK integral package has been found!

================================================================================
                                       INPUT FILE
================================================================================
NAME = p0_C5H6O_opt_orca.inp
|  1> ! Opt PBE0 RIJCOSX D3BJ def2-SVP def2/J 
|  2> %output 
|  3> xyzfile=True 
|  4> end 
|  5> %scf 
|  6> maxiter 250 
|  7> end
|  8> %output
|  9> Print[P_Hirshfeld] = 1
| 10> end
| 11> % maxcore
| 12> 4000
| 13> %pal nprocs 8
| 14> end
| 15> *xyz 0 1
| 16> C    1.08556266  -0.78363687  -0.19489519 
| 17> C    1.24163807   0.53593015  -0.03705368 
| 18> C   -0.20849334   1.01903682  -0.19237905 
| 19> C   -0.96725054   0.02766228   0.72615129 
| 20> C   -0.43187390  -0.87025035  -0.41818844 
| 21> O   -0.66708827   0.23692906  -1.32047234 
| 22> H    1.80364034  -1.60259337  -0.17850750 
| 23> H    2.12806773   1.14078681   0.14962786 
| 24> H   -0.42833456   2.09342838  -0.25030111 
| 25> H   -2.05810086   0.16174108   0.68188234 
| 26> H   -0.60671528  -0.13747598   1.75208362 
| 27> H   -0.89115203  -1.82165801  -0.71814778 
| 28> *
| 29> 
| 30>                          ****END OF INPUT****
================================================================================

                       *****************************
                       * Geometry Optimization Run *
                       *****************************

Geometry optimization settings:
Update method            Update   .... BFGS
Choice of coordinates    CoordSys .... Z-matrix Internals
Initial Hessian          InHess   .... Almoef's Model

Convergence Tolerances:
Energy Change            TolE     ....  5.0000e-06 Eh
Max. Gradient            TolMAXG  ....  3.0000e-04 Eh/bohr
RMS Gradient             TolRMSG  ....  1.0000e-04 Eh/bohr
Max. Displacement        TolMAXD  ....  4.0000e-03 bohr
RMS Displacement         TolRMSD  ....  2.0000e-03 bohr
Strict Convergence                ....  False
------------------------------------------------------------------------------
                        ORCA OPTIMIZATION COORDINATE SETUP
------------------------------------------------------------------------------

The optimization will be done in new redundant internal coordinates
Making redundant internal coordinates   ...  (new redundants) done
Evaluating the initial hessian          ...  (Almloef) done
Evaluating the coordinates              ...  done
Calculating the B-matrix                .... done
Calculating the G-matrix                .... done
Diagonalizing the G-matrix              .... done
The first mode is                       ....   79
The number of degrees of freedom        ....   30

    -----------------------------------------------------------------
                    Redundant Internal Coordinates


    -----------------------------------------------------------------
         Definition                    Initial Value    Approx d2E/dq
    -----------------------------------------------------------------
      1. B(C   1,C   0)                  1.3381         0.756015   
      2. B(C   2,C   1)                  1.5364         0.364949   
      3. B(C   3,C   2)                  1.5499         0.347221   
      4. B(C   4,C   3)                  1.5500         0.347157   
      5. B(C   4,C   2)                  1.9158         0.090543   
      6. B(C   4,C   0)                  1.5362         0.365134   
      7. B(O   5,C   2)                  1.4473         0.453421   
      8. B(O   5,C   4)                  1.4475         0.453023   
      9. B(H   6,C   0)                  1.0893         0.361015   
     10. B(H   7,C   1)                  1.0892         0.361097   
     11. B(H   8,C   2)                  1.0982         0.349438   
     12. B(H   9,C   3)                  1.1000         0.347174   
     13. B(H  10,C   3)                  1.0999         0.347231   
     14. B(H  11,C   4)                  1.0982         0.349388   
     15. A(C   1,C   0,H   6)          131.5086         0.365185   
     16. A(C   1,C   0,C   4)          100.8336         0.409151   
     17. A(C   4,C   0,H   6)          127.6577         0.323239   
     18. A(C   0,C   1,H   7)          131.5093         0.365199   
     19. A(C   2,C   1,H   7)          127.6503         0.323224   
     20. A(C   0,C   1,C   2)          100.8404         0.409114   
     21. A(C   4,C   2,O   5)           48.5672         0.295274   
     22. A(C   1,C   2,H   8)          120.1272         0.321491   
     23. A(O   5,C   2,H   8)          115.0969         0.331189   
     24. A(C   3,C   2,O   5)           87.7738         0.368620   
     25. A(C   1,C   2,O   5)          102.0028         0.371789   
     26. A(C   3,C   2,C   4)           51.8291         0.284795   
     27. A(C   1,C   2,C   4)           79.1566         0.287014   
     28. A(C   1,C   2,C   3)          101.5969         0.357423   
     29. A(C   4,C   2,H   8)          159.2668         0.258585   
     30. A(C   3,C   2,H   8)          123.9889         0.318885   
     31. A(C   2,C   3,C   4)           76.3441         0.354404   
     32. A(C   4,C   3,H   9)          112.5479         0.318538   
     33. A(C   2,C   3,H   9)          112.5617         0.318547   
     34. A(C   2,C   3,H  10)          119.2316         0.318556   
     35. A(H   9,C   3,H  10)          112.3904         0.287534   
     36. A(C   4,C   3,H  10)          119.2386         0.318546   
     37. A(C   3,C   4,O   5)           87.7634         0.368553   
     38. A(C   2,C   4,O   5)           48.5565         0.295233   
     39. A(C   0,C   4,O   5)          102.0044         0.371766   
     40. A(C   0,C   4,C   2)           79.1694         0.287036   
     41. A(C   2,C   4,C   3)           51.8268         0.284786   
     42. A(O   5,C   4,H  11)          115.1142         0.331133   
     43. A(C   0,C   4,H  11)          120.1081         0.321510   
     44. A(C   2,C   4,H  11)          159.2739         0.258579   
     45. A(C   3,C   4,H  11)          123.9915         0.318868   
     46. A(C   0,C   4,C   3)          101.6079         0.357443   
     47. A(C   2,O   5,C   4)           82.8764         0.383527   
     48. D(C   2,C   1,C   0,C   4)     -0.0063         0.040824   
     49. D(H   7,C   1,C   0,H   6)      0.0007         0.040824   
     50. D(C   2,C   1,C   0,H   6)    179.9394         0.040824   
     51. D(H   7,C   1,C   0,C   4)   -179.9450         0.040824   
     52. D(C   4,C   2,C   1,H   7)    179.9471         0.010666   
     53. D(H   8,C   2,C   1,H   7)      8.1334         0.010666   
     54. D(C   3,C   2,C   1,C   0)     47.0312         0.010666   
     55. D(O   5,C   2,C   1,H   7)    136.7962         0.010666   
     56. D(C   4,C   2,C   1,C   0)      0.0051         0.010666   
     57. D(C   3,C   2,C   1,H   7)   -133.0268         0.010666   
     58. D(O   5,C   2,C   1,C   0)    -43.1458         0.010666   
     59. D(H   8,C   2,C   1,C   0)   -171.8086         0.010666   
     60. D(C   4,C   3,C   2,O   5)     35.7275         0.010297   
     61. D(H   9,C   3,C   2,O   5)    -73.3212         0.010297   
     62. D(C   4,C   3,C   2,H   8)    154.7876         0.010297   
     63. D(H  10,C   3,C   2,C   1)     50.0358         0.010297   
     64. D(H  10,C   3,C   2,C   4)    116.1070         0.010297   
     65. D(H   9,C   3,C   2,H   8)     45.7389         0.010297   
     66. D(C   4,C   3,C   2,C   1)    -66.0713         0.010297   
     67. D(H  10,C   3,C   2,O   5)    151.8346         0.010297   
     68. D(H  10,C   3,C   2,H   8)    -89.1053         0.010297   
     69. D(H   9,C   3,C   2,C   4)   -109.0487         0.010297   
     70. D(H   9,C   3,C   2,C   1)   -175.1200         0.010297   
     71. D(H  11,C   4,C   0,C   1)    171.8235         0.010676   
     72. D(O   5,C   4,C   0,C   1)     43.1495         0.010676   
     73. D(H  11,C   4,C   3,H  10)     89.1051         0.010294   
     74. D(C   3,C   4,C   0,H   6)    133.0320         0.010676   
     75. D(O   5,C   4,C   0,H   6)   -136.7991         0.010676   
     76. D(H  11,C   4,C   0,H   6)     -8.1252         0.010676   
     77. D(O   5,C   4,C   3,H   9)     73.3443         0.010294   
     78. D(C   3,C   4,C   0,C   1)    -47.0194         0.010676   
     79. D(C   2,C   4,C   0,H   6)   -179.9436         0.010676   
     80. D(C   2,C   4,C   3,H   9)    109.0653         0.010294   
     81. D(C   0,C   4,C   3,H  10)    -50.0217         0.010294   
     82. D(C   2,C   4,C   0,C   1)      0.0051         0.010676   
     83. D(C   0,C   4,C   3,C   2)     66.0774         0.010294   
     84. D(H  11,C   4,C   2,H   8)     -0.0056         0.002058   
     85. D(H  11,C   4,C   2,O   5)    -42.8084         0.002058   
     86. D(H  11,C   4,C   2,C   3)     86.0896         0.002058   
     87. D(H  11,C   4,C   2,C   1)   -159.6475         0.002058   
     88. D(O   5,C   4,C   2,H   8)     42.8028         0.002058   
     89. D(O   5,C   4,C   2,C   3)    128.8980         0.002058   
     90. D(O   5,C   4,C   2,C   1)   -116.8391         0.002058   
     91. D(C   3,C   4,C   2,H   8)    -86.0952         0.002058   
     92. D(C   3,C   4,C   2,O   5)   -128.8980         0.002058   
     93. D(C   0,C   4,C   3,H   9)    175.1427         0.010294   
     94. D(C   3,C   4,C   2,C   1)    114.2629         0.002058   
     95. D(C   0,C   4,C   2,H   8)    159.6375         0.002058   
     96. D(C   2,C   4,C   3,H  10)   -116.0991         0.010294   
     97. D(O   5,C   4,C   3,C   2)    -35.7210         0.010294   
     98. D(C   0,C   4,C   2,O   5)    116.8347         0.002058   
     99. D(O   5,C   4,C   3,H  10)   -151.8201         0.010294   
    100. D(H  11,C   4,C   3,C   2)   -154.7958         0.010294   
    101. D(H  11,C   4,C   3,H   9)    -45.7306         0.010294   
    102. D(C   0,C   4,C   2,C   3)   -114.2673         0.002058   
    103. D(C   0,C   4,C   2,C   1)     -0.0044         0.002058   
    104. D(C   2,O   5,C   4,H  11)    164.5973         0.017511   
    105. D(C   2,O   5,C   4,C   3)     37.7557         0.017511   
    106. D(C   2,O   5,C   4,C   0)    -63.6388         0.017511   
    107. D(C   4,O   5,C   2,H   8)   -164.5960         0.017542   
    108. D(C   4,O   5,C   2,C   3)    -37.7569         0.017542   
    109. D(C   4,O   5,C   2,C   1)     63.6286         0.017542   
    -----------------------------------------------------------------

Number of atoms                         .... 12
Number of degrees of freedom            .... 109

         *************************************************************
         *                GEOMETRY OPTIMIZATION CYCLE   1            *
         *************************************************************
---------------------------------
CARTESIAN COORDINATES (ANGSTROEM)
---------------------------------
  C      1.085563   -0.783637   -0.194895
  C      1.241638    0.535930   -0.037054
  C     -0.208493    1.019037   -0.192379
  C     -0.967251    0.027662    0.726151
  C     -0.431874   -0.870250   -0.418188
  O     -0.667088    0.236929   -1.320472
  H      1.803640   -1.602593   -0.178508
  H      2.128068    1.140787    0.149628
  H     -0.428335    2.093428   -0.250301
  H     -2.058101    0.161741    0.681882
  H     -0.606715   -0.137476    1.752084
  H     -0.891152   -1.821658   -0.718148

----------------------------
CARTESIAN COORDINATES (A.U.)
----------------------------
  NO LB      ZA    FRAG     MASS         X           Y           Z
   0 C     6.0000    0    12.011    2.051416   -1.480859   -0.368299
   1 C     6.0000    0    12.011    2.346356    1.012761   -0.070021
   2 C     6.0000    0    12.011   -0.393995    1.925701   -0.363544
   3 C     6.0000    0    12.011   -1.827839    0.052274    1.372227
   4 C     6.0000    0    12.011   -0.816123   -1.644535   -0.790262
   5 O     8.0000    0    15.999   -1.260614    0.447731   -2.495331
   6 H     1.0000    0     1.008    3.408386   -3.028463   -0.337330
   7 H     1.0000    0     1.008    4.021465    2.155775    0.282756
   8 H     1.0000    0     1.008   -0.809435    3.956006   -0.473001
   9 H     1.0000    0     1.008   -3.889247    0.305646    1.288571
  10 H     1.0000    0     1.008   -1.146526   -0.259792    3.310958
  11 H     1.0000    0     1.008   -1.684033   -3.442435   -1.357103

--------------------------------
INTERNAL COORDINATES (ANGSTROEM)
--------------------------------
 C      0   0   0     0.000000000000     0.00000000     0.00000000
 C      1   0   0     1.338107094428     0.00000000     0.00000000
 C      2   1   0     1.536359050298   100.84040689     0.00000000
 C      3   2   1     1.549914175886   101.59693512    47.03116957
 C      1   2   3     1.536221170287   100.83363812     0.00000000
 O      3   2   1     1.447272030068   102.00277059   316.85419136
 H      1   2   3     1.089308890898   131.50861621   179.93937147
 H      2   1   3     1.089247042067   131.50928052   180.06129868
 H      3   2   1     1.098181383581   120.12715767   188.19140574
 H      4   3   2     1.099950583066   112.56171050   184.88002882
 H      4   3   2     1.099906116156   119.23163208    50.03576302
 H      5   1   2     1.098220625310   120.10806251   171.82346280

---------------------------
INTERNAL COORDINATES (A.U.)
---------------------------
 C      0   0   0     0.000000000000     0.00000000     0.00000000
 C      1   0   0     2.528655946325     0.00000000     0.00000000
 C      2   1   0     2.903297848435   100.84040689     0.00000000
 C      3   2   1     2.928913323507   101.59693512    47.03116957
 C      1   2   3     2.903037292974   100.83363812     0.00000000
 O      3   2   1     2.734947778113   102.00277059   316.85419136
 H      1   2   3     2.058495479043   131.50861621   179.93937147
 H      2   1   3     2.058378601690   131.50928052   180.06129868
 H      3   2   1     2.075262060340   120.12715767   188.19140574
 H      4   3   2     2.078605362842   112.56171050   184.88002882
 H      4   3   2     2.078521332561   119.23163208    50.03576302
 H      5   1   2     2.075336216460   120.10806251   171.82346280

---------------------
BASIS SET INFORMATION
---------------------
There are 3 groups of distinct atoms

 Group   1 Type C   : 7s4p1d contracted to 3s2p1d pattern {511/31/1}
 Group   2 Type O   : 7s4p1d contracted to 3s2p1d pattern {511/31/1}
 Group   3 Type H   : 4s1p contracted to 2s1p pattern {31/1}

Atom   0C    basis set group =>   1
Atom   1C    basis set group =>   1
Atom   2C    basis set group =>   1
Atom   3C    basis set group =>   1
Atom   4C    basis set group =>   1
Atom   5O    basis set group =>   2
Atom   6H    basis set group =>   3
Atom   7H    basis set group =>   3
Atom   8H    basis set group =>   3
Atom   9H    basis set group =>   3
Atom  10H    basis set group =>   3
Atom  11H    basis set group =>   3
---------------------------------
AUXILIARY/J BASIS SET INFORMATION
---------------------------------
There are 3 groups of distinct atoms

 Group   1 Type C   : 12s5p4d2f1g contracted to 6s4p3d1f1g pattern {711111/2111/211/2/1}
 Group   2 Type O   : 12s5p4d2f1g contracted to 6s4p3d1f1g pattern {711111/2111/211/2/1}
 Group   3 Type H   : 5s2p1d contracted to 3s1p1d pattern {311/2/1}

Atom   0C    basis set group =>   1
Atom   1C    basis set group =>   1
Atom   2C    basis set group =>   1
Atom   3C    basis set group =>   1
Atom   4C    basis set group =>   1
Atom   5O    basis set group =>   2
Atom   6H    basis set group =>   3
Atom   7H    basis set group =>   3
Atom   8H    basis set group =>   3
Atom   9H    basis set group =>   3
Atom  10H    basis set group =>   3
Atom  11H    basis set group =>   3


           ************************************************************
           *        Program running with 8 parallel MPI-processes     *
           *              working on a common directory               *
           ************************************************************
------------------------------------------------------------------------------
                           ORCA GTO INTEGRAL CALCULATION
                           -- RI-GTO INTEGRALS CHOSEN --
------------------------------------------------------------------------------
------------------------------------------------------------------------------
                   ___                                                        
                  /   \      - P O W E R E D   B Y -                         
                 /     \                                                     
                 |  |  |   _    _      __       _____    __    __             
                 |  |  |  | |  | |    /  \     |  _  \  |  |  /  |          
                  \  \/   | |  | |   /    \    | | | |  |  | /  /          
                 / \  \   | |__| |  /  /\  \   | |_| |  |  |/  /          
                |  |  |   |  __  | /  /__\  \  |    /   |      \           
                |  |  |   | |  | | |   __   |  |    \   |  |\   \          
                \     /   | |  | | |  |  |  |  | |\  \  |  | \   \       
                 \___/    |_|  |_| |__|  |__|  |_| \__\ |__|  \__/        
                                                                              
                      - O R C A' S   B I G   F R I E N D -                    
                                      &                                       
                       - I N T E G R A L  F E E D E R -                       
                                                                              
 v1 FN, 2020, v2 2021                                                         
------------------------------------------------------------------------------


Reading SHARK input file p0_C5H6O_opt_orca.SHARKINP.tmp ... ok
----------------------
SHARK INTEGRAL PACKAGE
----------------------

Number of atoms                             ...     12
Number of basis functions                   ...    114
Number of shells                            ...     54
Maximum angular momentum                    ...      2
Integral batch strategy                     ... SHARK/LIBINT Hybrid
RI-J (if used) integral strategy            ... SPLIT-RIJ (Revised 2003 algorithm where possible)
Printlevel                                  ...      1
Contraction scheme used                     ... SEGMENTED contraction
Coulomb Range Separation                    ... NOT USED
Exchange Range Separation                   ... NOT USED
Finite Nucleus Model                        ... NOT USED
Auxiliary Coulomb fitting basis             ... AVAILABLE
   # of basis functions in Aux-J            ...    360
   # of shells in Aux-J                     ...    120
   Maximum angular momentum in Aux-J        ...      4
Auxiliary J/K fitting basis                 ... NOT available
Auxiliary Correlation fitting basis         ... NOT available
Auxiliary 'external' fitting basis          ... NOT available
Integral threshold                          ...     2.500000e-11
Primitive cut-off                           ...     2.500000e-12
Primitive pair pre-selection threshold      ...     2.500000e-12

Calculating pre-screening integrals         ... done (  0.0 sec) Dimension = 54
Organizing shell pair data                  ... done (  0.0 sec)
Shell pair information
Total number of shell pairs                 ...      1485
Shell pairs after pre-screening             ...      1478
Total number of primitive shell pairs       ...      5349
Primitive shell pairs kept                  ...      4254
          la=0 lb=0:    458 shell pairs
          la=1 lb=0:    540 shell pairs
          la=1 lb=1:    171 shell pairs
          la=2 lb=0:    180 shell pairs
          la=2 lb=1:    108 shell pairs
          la=2 lb=2:     21 shell pairs

Calculating one electron integrals          ... done (  0.0 sec)
Calculating RI/J V-Matrix + Cholesky decomp.... done (  0.0 sec)
Calculating Nuclear repulsion               ... done (  0.0 sec) ENN=    234.239278844393 Eh

SHARK setup successfully completed in   0.1 seconds

Maximum memory used throughout the entire GTOINT-calculation: 10.2 MB


           ************************************************************
           *        Program running with 8 parallel MPI-processes     *
           *              working on a common directory               *
           ************************************************************
-------------------------------------------------------------------------------
                                 ORCA SCF
-------------------------------------------------------------------------------

------------
SCF SETTINGS
------------
Hamiltonian:
 Density Functional     Method          .... DFT(GTOs)
 Exchange Functional    Exchange        .... PBE
   PBE kappa parameter   XKappa         ....  0.804000
   PBE mue parameter    XMuePBE         ....  0.219520
 Correlation Functional Correlation     .... PBE
   PBE beta parameter  CBetaPBE         ....  0.066725
 LDA part of GGA corr.  LDAOpt          .... PW91-LDA
 Gradients option       PostSCFGGA      .... off
 Hybrid DFT is turned on
   Fraction HF Exchange ScalHFX         ....  0.250000
   Scaling of DF-GGA-X  ScalDFX         ....  0.750000
   Scaling of DF-GGA-C  ScalDFC         ....  1.000000
   Scaling of DF-LDA-C  ScalLDAC        ....  1.000000
   Perturbative correction              ....  0.000000
   Density functional embedding theory  .... OFF
   NL short-range parameter             ....  6.900000
 RI-approximation to the Coulomb term is turned on
   Number of AuxJ basis functions       .... 360
   RIJ-COSX (HFX calculated with COS-X)).... on


General Settings:
 Integral files         IntName         .... p0_C5H6O_opt_orca
 Hartree-Fock type      HFTyp           .... RHF
 Total Charge           Charge          ....    0
 Multiplicity           Mult            ....    1
 Number of Electrons    NEL             ....   44
 Basis Dimension        Dim             ....  114
 Nuclear Repulsion      ENuc            ....    234.2392788444 Eh

Convergence Acceleration:
 DIIS                   CNVDIIS         .... on
   Start iteration      DIISMaxIt       ....    12
   Startup error        DIISStart       ....  0.200000
   # of expansion vecs  DIISMaxEq       ....     5
   Bias factor          DIISBfac        ....   1.050
   Max. coefficient     DIISMaxC        ....  10.000
 Trust-Rad. Augm. Hess. CNVTRAH         .... auto
   Auto Start mean grad. ratio tolernc. ....  1.125000
   Auto Start start iteration           ....    20
   Auto Start num. interpolation iter.  ....    10
   Max. Number of Micro iterations      ....    16
   Max. Number of Macro iterations      .... Maxiter - #DIIS iter
   Number of Davidson start vectors     ....     2
   Converg. threshold I  (grad. norm)   ....   1.000e-05
   Converg. threshold II (energy diff.) ....   1.000e-08
   Grad. Scal. Fac. for Micro threshold ....   0.100
   Minimum threshold for Micro iter.    ....   0.010
   NR start threshold (gradient norm)   ....   0.001
   Initial trust radius                 ....   0.400
   Minimum AH scaling param. (alpha)    ....   1.000
   Maximum AH scaling param. (alpha)    .... 1000.000
   Orbital update algorithm             .... Taylor
   White noise on init. David. guess    .... on
   Maximum white noise                  ....   0.010
   Quad. conv. algorithm                .... NR
 SOSCF                  CNVSOSCF        .... on
   Start iteration      SOSCFMaxIt      ....   150
   Startup grad/error   SOSCFStart      ....  0.003300
 Level Shifting         CNVShift        .... on
   Level shift para.    LevelShift      ....    0.2500
   Turn off err/grad.   ShiftErr        ....    0.0010
 Zerner damping         CNVZerner       .... off
 Static damping         CNVDamp         .... on
   Fraction old density DampFac         ....    0.7000
   Max. Damping (<1)    DampMax         ....    0.9800
   Min. Damping (>=0)   DampMin         ....    0.0000
   Turn off err/grad.   DampErr         ....    0.1000
 Fernandez-Rico         CNVRico         .... off

SCF Procedure:
 Maximum # iterations   MaxIter         ....   250
 SCF integral mode      SCFMode         .... Direct
   Integral package                     .... SHARK and LIBINT hybrid scheme
 Reset frequency        DirectResetFreq ....    20
 Integral Threshold     Thresh          ....  2.500e-11 Eh
 Primitive CutOff       TCut            ....  2.500e-12 Eh

Convergence Tolerance:
 Convergence Check Mode ConvCheckMode   .... Total+1el-Energy
 Convergence forced     ConvForced      .... 0
 Energy Change          TolE            ....  1.000e-08 Eh
 1-El. energy change                    ....  1.000e-05 Eh
 Orbital Gradient       TolG            ....  1.000e-05
 Orbital Rotation angle TolX            ....  1.000e-05
 DIIS Error             TolErr          ....  5.000e-07


Diagonalization of the overlap matrix:
Smallest eigenvalue                        ... 5.053e-04
Time for diagonalization                   ...    0.002 sec
Threshold for overlap eigenvalues          ... 1.000e-08
Number of eigenvalues below threshold      ... 0
Time for construction of square roots      ...    0.001 sec
Total time needed                          ...    0.003 sec

Time for model grid setup =    0.035 sec

------------------------------
INITIAL GUESS: MODEL POTENTIAL
------------------------------
Loading Hartree-Fock densities                     ... done
Calculating cut-offs                               ... done
Initializing the effective Hamiltonian             ... done
Setting up the integral package (SHARK)            ... done
Starting the Coulomb interaction                   ... done (   0.0 sec)
Reading the grid                                   ... done
Mapping shells                                     ... done
Starting the XC term evaluation                    ... done (   0.0 sec)
  promolecular density results
     # of electrons  =     43.996964865
     EX              =    -35.482985390
     EC              =     -1.468073397
     EX+EC           =    -36.951058787
Transforming the Hamiltonian                       ... done (   0.0 sec)
Diagonalizing the Hamiltonian                      ... done (   0.0 sec)
Back transforming the eigenvectors                 ... done (   0.0 sec)
Now organizing SCF variables                       ... done
                      ------------------
                      INITIAL GUESS DONE (   0.1 sec)
                      ------------------
-------------------
DFT GRID GENERATION
-------------------

General Integration Accuracy     IntAcc      ... 4.388
Radial Grid Type                 RadialGrid  ... OptM3 with GC (2021)
Angular Grid (max. ang.)         AngularGrid ... 4 (Lebedev-302)
Angular grid pruning method      GridPruning ... 4 (adaptive)
Weight generation scheme         WeightScheme... Becke
Basis function cutoff            BFCut       ... 1.0000e-11
Integration weight cutoff        WCut        ... 1.0000e-14
Angular grids for H and He will be reduced by one unit
Partially contracted basis set               ... off
Rotationally invariant grid construction     ... off

Total number of grid points                  ...    55492
Total number of batches                      ...      873
Average number of points per batch           ...       63
Average number of grid points per atom       ...     4624
Time for grid setup =    0.204 sec

--------------------
COSX GRID GENERATION
--------------------

GRIDX 1
-------
General Integration Accuracy     IntAcc      ... 3.816
Radial Grid Type                 RadialGrid  ... OptM3 with GC (2021)
Angular Grid (max. ang.)         AngularGrid ... 1 (Lebedev-50)
Angular grid pruning method      GridPruning ... 4 (adaptive)
Weight generation scheme         WeightScheme... Becke
Basis function cutoff            BFCut       ... 1.0000e-11
Integration weight cutoff        WCut        ... 1.0000e-14
Angular grids for H and He will be reduced by one unit
Partially contracted basis set               ... on
Rotationally invariant grid construction     ... off

Total number of grid points                  ...     7099
Total number of batches                      ...      115
Average number of points per batch           ...       61
Average number of grid points per atom       ...      592
UseSFitting                                  ... on

GRIDX 2
-------
General Integration Accuracy     IntAcc      ... 4.020
Radial Grid Type                 RadialGrid  ... OptM3 with GC (2021)
Angular Grid (max. ang.)         AngularGrid ... 2 (Lebedev-110)
Angular grid pruning method      GridPruning ... 4 (adaptive)
Weight generation scheme         WeightScheme... Becke
Basis function cutoff            BFCut       ... 1.0000e-11
Integration weight cutoff        WCut        ... 1.0000e-14
Angular grids for H and He will be reduced by one unit
Partially contracted basis set               ... on
Rotationally invariant grid construction     ... off

Total number of grid points                  ...    15435
Total number of batches                      ...      247
Average number of points per batch           ...       62
Average number of grid points per atom       ...     1286
UseSFitting                                  ... on

GRIDX 3
-------
General Integration Accuracy     IntAcc      ... 4.338
Radial Grid Type                 RadialGrid  ... OptM3 with GC (2021)
Angular Grid (max. ang.)         AngularGrid ... 3 (Lebedev-194)
Angular grid pruning method      GridPruning ... 4 (adaptive)
Weight generation scheme         WeightScheme... Becke
Basis function cutoff            BFCut       ... 1.0000e-11
Integration weight cutoff        WCut        ... 1.0000e-14
Angular grids for H and He will be reduced by one unit
Partially contracted basis set               ... on
Rotationally invariant grid construction     ... off

Total number of grid points                  ...    33949
Total number of batches                      ...      538
Average number of points per batch           ...       63
Average number of grid points per atom       ...     2829
UseSFitting                                  ... on

Time for X-Grid setup             =    0.150 sec

--------------
SCF ITERATIONS
--------------
ITER       Energy         Delta-E        Max-DP      RMS-DP      [F,P]     Damp
               ***  Starting incremental Fock matrix formation  ***
  0   -268.6449609516   0.000000000000 0.06077233  0.00246061  0.1622353 0.7000
  1   -268.6929823424  -0.048021390789 0.03878917  0.00171435  0.0706664 0.7000
                               ***Turning on DIIS***
  2   -268.7137448770  -0.020762534644 0.05873549  0.00293314  0.0261443 0.0000
  3   -268.7452775066  -0.031532629582 0.02856958  0.00125211  0.0367437 0.0000
  4   -268.7523017066  -0.007024199976 0.00550008  0.00028856  0.0049412 0.0000
  5   -268.7525124721  -0.000210765543 0.00288341  0.00010897  0.0047686 0.0000
                      *** Initiating the SOSCF procedure ***
                           *** Shutting down DIIS ***
                      *** Re-Reading the Fockian *** 
                      *** Removing any level shift *** 
ITER      Energy       Delta-E        Grad      Rot      Max-DP    RMS-DP
  6   -268.75254675  -0.0000342753  0.000145  0.000145  0.000901  0.000049
               *** Restarting incremental Fock matrix formation ***
  7   -268.75260653  -0.0000597837  0.000064  0.000098  0.000425  0.000019
  8   -268.75260651   0.0000000202  0.000072  0.000061  0.000169  0.000007
  9   -268.75260666  -0.0000001515  0.000005  0.000007  0.000013  0.000001
 10   -268.75260666  -0.0000000009  0.000007  0.000004  0.000009  0.000000
                 **** Energy Check signals convergence ****
              ***Rediagonalizing the Fockian in SOSCF/NRSCF***

               *****************************************************
               *                     SUCCESS                       *
               *           SCF CONVERGED AFTER  11 CYCLES          *
               *****************************************************

Old exchange energy                            =     -9.048251775 Eh
New exchange energy                            =     -9.048252843 Eh
Exchange energy change after final integration =     -0.000001068 Eh
Total energy after final integration           =   -268.752607730 Eh
Final COS-X integration done in                =     0.454 sec

----------------
TOTAL SCF ENERGY
----------------

Total Energy       :         -268.75260773 Eh           -7313.13025 eV

Components:
Nuclear Repulsion  :          234.23927884 Eh            6373.97482 eV
Electronic Energy  :         -502.99188657 Eh          -13687.10507 eV
One Electron Energy:         -827.78844559 Eh          -22525.26877 eV
Two Electron Energy:          324.79655901 Eh            8838.16369 eV
Max COSX asymmetry :            0.00000278 Eh               0.00008 eV

Virial components:
Potential Energy   :         -535.04603734 Eh          -14559.34286 eV
Kinetic Energy     :          266.29342961 Eh            7246.21261 eV
Virial Ratio       :            2.00923484


DFT components:
N(Alpha)           :       22.000000905751 electrons
N(Beta)            :       22.000000905751 electrons
N(Total)           :       44.000001811501 electrons
E(X)               :      -27.064754381604 Eh       
E(C)               :       -1.479614211526 Eh       
E(XC)              :      -28.544368593130 Eh       
DFET-embed. en.    :        0.000000000000 Eh       

---------------
SCF CONVERGENCE
---------------

  Last Energy change         ...    1.2147e-09  Tolerance :   1.0000e-08
  Last MAX-Density change    ...    3.5527e-15  Tolerance :   1.0000e-07
  Last RMS-Density change    ...    6.2123e-17  Tolerance :   5.0000e-09
  Last Orbital Gradient      ...    4.7157e-07  Tolerance :   1.0000e-05
  Last Orbital Rotation      ...    9.3472e-07  Tolerance :   1.0000e-05

             **** THE GBW FILE WAS UPDATED (p0_C5H6O_opt_orca.gbw) ****
             **** DENSITY p0_C5H6O_opt_orca.scfp WAS UPDATED ****
             **** ENERGY FILE WAS UPDATED (p0_C5H6O_opt_orca.en.tmp) ****
             **** THE GBW FILE WAS UPDATED (p0_C5H6O_opt_orca.gbw) ****
             **** DENSITY p0_C5H6O_opt_orca.scfp WAS UPDATED ****
----------------
ORBITAL ENERGIES
----------------

  NO   OCC          E(Eh)            E(eV) 
   0   2.0000     -19.200684      -522.4772 
   1   2.0000     -10.293588      -280.1028 
   2   2.0000     -10.293548      -280.1017 
   3   2.0000     -10.244500      -278.7670 
   4   2.0000     -10.239758      -278.6380 
   5   2.0000     -10.238893      -278.6144 
   6   2.0000      -1.086084       -29.5538 
   7   2.0000      -0.827302       -22.5120 
   8   2.0000      -0.731421       -19.9030 
   9   2.0000      -0.711011       -19.3476 
  10   2.0000      -0.568880       -15.4800 
  11   2.0000      -0.557020       -15.1573 
  12   2.0000      -0.549178       -14.9439 
  13   2.0000      -0.489509       -13.3202 
  14   2.0000      -0.436217       -11.8701 
  15   2.0000      -0.433334       -11.7916 
  16   2.0000      -0.411403       -11.1948 
  17   2.0000      -0.370677       -10.0866 
  18   2.0000      -0.351716        -9.5707 
  19   2.0000      -0.344922        -9.3858 
  20   2.0000      -0.271451        -7.3865 
  21   2.0000      -0.253850        -6.9076 
  22   0.0000      -0.003073        -0.0836 
  23   0.0000       0.080976         2.2035 
  24   0.0000       0.112514         3.0617 
  25   0.0000       0.116512         3.1704 
  26   0.0000       0.121074         3.2946 
  27   0.0000       0.130237         3.5439 
  28   0.0000       0.135641         3.6910 
  29   0.0000       0.148572         4.0429 
  30   0.0000       0.182825         4.9749 
  31   0.0000       0.205849         5.6014 
  32   0.0000       0.222846         6.0640 
  33   0.0000       0.246953         6.7199 
  34   0.0000       0.285524         7.7695 
  35   0.0000       0.361320         9.8320 
  36   0.0000       0.398458        10.8426 
  37   0.0000       0.440223        11.9791 
  38   0.0000       0.469971        12.7886 
  39   0.0000       0.487767        13.2728 
  40   0.0000       0.501513        13.6469 
  41   0.0000       0.531844        14.4722 
  42   0.0000       0.561226        15.2717 
  43   0.0000       0.561386        15.2761 
  44   0.0000       0.582346        15.8464 
  45   0.0000       0.589279        16.0351 
  46   0.0000       0.615312        16.7435 
  47   0.0000       0.641858        17.4658 
  48   0.0000       0.646446        17.5907 
  49   0.0000       0.658846        17.9281 
  50   0.0000       0.676223        18.4010 
  51   0.0000       0.692545        18.8451 
  52   0.0000       0.700588        19.0640 
  53   0.0000       0.703351        19.1392 
  54   0.0000       0.731228        19.8977 
  55   0.0000       0.795837        21.6558 
  56   0.0000       0.828001        22.5311 
  57   0.0000       0.840015        22.8580 
  58   0.0000       0.903274        24.5793 
  59   0.0000       0.993414        27.0322 
  60   0.0000       1.027626        27.9631 
  61   0.0000       1.152115        31.3506 
  62   0.0000       1.215759        33.0825 
  63   0.0000       1.267713        34.4962 
  64   0.0000       1.306137        35.5418 
  65   0.0000       1.316932        35.8355 
  66   0.0000       1.353986        36.8438 
  67   0.0000       1.367531        37.2124 
  68   0.0000       1.444312        39.3017 
  69   0.0000       1.459600        39.7177 
  70   0.0000       1.552613        42.2488 
  71   0.0000       1.557579        42.3839 
  72   0.0000       1.614067        43.9210 
  73   0.0000       1.617846        44.0238 
  74   0.0000       1.681703        45.7615 
  75   0.0000       1.683965        45.8230 
  76   0.0000       1.717373        46.7321 
  77   0.0000       1.727786        47.0154 
  78   0.0000       1.745767        47.5047 
  79   0.0000       1.771303        48.1996 
  80   0.0000       1.845075        50.2070 
  81   0.0000       1.869043        50.8592 
  82   0.0000       1.894445        51.5505 
  83   0.0000       1.939432        52.7746 
  84   0.0000       1.981529        53.9201 
  85   0.0000       2.007758        54.6339 
  86   0.0000       2.012099        54.7520 
  87   0.0000       2.055613        55.9361 
  88   0.0000       2.072696        56.4009 
  89   0.0000       2.100175        57.1487 
  90   0.0000       2.130257        57.9672 
  91   0.0000       2.190994        59.6200 
  92   0.0000       2.192979        59.6740 
  93   0.0000       2.249937        61.2239 
  94   0.0000       2.307998        62.8038 
  95   0.0000       2.309308        62.8395 
  96   0.0000       2.437071        66.3161 
  97   0.0000       2.448137        66.6172 
  98   0.0000       2.540882        69.1409 
  99   0.0000       2.569265        69.9133 
 100   0.0000       2.640102        71.8408 
 101   0.0000       2.687217        73.1229 
 102   0.0000       2.712996        73.8244 
 103   0.0000       2.808271        76.4169 
 104   0.0000       2.892561        78.7106 
 105   0.0000       2.911047        79.2136 
 106   0.0000       2.956159        80.4412 
 107   0.0000       2.975222        80.9599 
 108   0.0000       3.015535        82.0569 
 109   0.0000       3.051834        83.0446 
 110   0.0000       3.112146        84.6858 
 111   0.0000       3.271583        89.0243 
 112   0.0000       3.414456        92.9121 
 113   0.0000       3.534707        96.1843 

                    ********************************
                    * MULLIKEN POPULATION ANALYSIS *
                    ********************************

-----------------------
MULLIKEN ATOMIC CHARGES
-----------------------
   0 C :    0.000662
   1 C :    0.000624
   2 C :    0.065133
   3 C :    0.015268
   4 C :    0.064714
   5 O :   -0.374103
   6 H :    0.029903
   7 H :    0.029610
   8 H :    0.031091
   9 H :    0.054920
  10 H :    0.051014
  11 H :    0.031163
Sum of atomic charges:    0.0000000

--------------------------------
MULLIKEN REDUCED ORBITAL CHARGES
--------------------------------
  0 C s       :     3.226252  s :     3.226252
      pz      :     0.989648  p :     2.739251
      px      :     0.859078
      py      :     0.890525
      dz2     :     0.002990  d :     0.033835
      dxz     :     0.003159
      dyz     :     0.006012
      dx2y2   :     0.011272
      dxy     :     0.010402
  1 C s       :     3.226337  s :     3.226337
      pz      :     0.982326  p :     2.739209
      px      :     0.824403
      py      :     0.932480
      dz2     :     0.002839  d :     0.033829
      dxz     :     0.002958
      dyz     :     0.006161
      dx2y2   :     0.010100
      dxy     :     0.011772
  2 C s       :     3.258700  s :     3.258700
      pz      :     0.770168  p :     2.603388
      px      :     0.919025
      py      :     0.914195
      dz2     :     0.015316  d :     0.072778
      dxz     :     0.013321
      dyz     :     0.015688
      dx2y2   :     0.017777
      dxy     :     0.010676
  3 C s       :     3.105767  s :     3.105767
      pz      :     0.957209  p :     2.843849
      px      :     1.004981
      py      :     0.881659
      dz2     :     0.010114  d :     0.035116
      dxz     :     0.005686
      dyz     :     0.007863
      dx2y2   :     0.006616
      dxy     :     0.004838
  4 C s       :     3.258825  s :     3.258825
      pz      :     0.824687  p :     2.603704
      px      :     0.932463
      py      :     0.846554
      dz2     :     0.012315  d :     0.072757
      dxz     :     0.009781
      dyz     :     0.020164
      dx2y2   :     0.017859
      dxy     :     0.012637
  5 O s       :     3.830546  s :     3.830546
      pz      :     1.504734  p :     4.525348
      px      :     1.816591
      py      :     1.204024
      dz2     :     0.004252  d :     0.018209
      dxz     :     0.003404
      dyz     :     0.007022
      dx2y2   :     0.001655
      dxy     :     0.001875
  6 H s       :     0.945815  s :     0.945815
      pz      :     0.005162  p :     0.024281
      px      :     0.008789
      py      :     0.010331
  7 H s       :     0.946107  s :     0.946107
      pz      :     0.005438  p :     0.024283
      px      :     0.011573
      py      :     0.007271
  8 H s       :     0.947268  s :     0.947268
      pz      :     0.002860  p :     0.021640
      px      :     0.003869
      py      :     0.014912
  9 H s       :     0.922585  s :     0.922585
      pz      :     0.003638  p :     0.022495
      px      :     0.014671
      py      :     0.004186
 10 H s       :     0.926864  s :     0.926864
      pz      :     0.013176  p :     0.022122
      px      :     0.004996
      py      :     0.003950
 11 H s       :     0.947195  s :     0.947195
      pz      :     0.003882  p :     0.021642
      px      :     0.005597
      py      :     0.012164


                     *******************************
                     * LOEWDIN POPULATION ANALYSIS *
                     *******************************

----------------------
LOEWDIN ATOMIC CHARGES
----------------------
   0 C :   -0.033465
   1 C :   -0.033410
   2 C :    0.076425
   3 C :   -0.028939
   4 C :    0.076496
   5 O :   -0.198561
   6 H :    0.029074
   7 H :    0.029013
   8 H :    0.016545
   9 H :    0.029211
  10 H :    0.021056
  11 H :    0.016554

-------------------------------
LOEWDIN REDUCED ORBITAL CHARGES
-------------------------------
  0 C s       :     2.893174  s :     2.893174
      pz      :     0.964611  p :     3.054360
      px      :     1.012440
      py      :     1.077309
      dz2     :     0.006662  d :     0.085931
      dxz     :     0.006330
      dyz     :     0.010973
      dx2y2   :     0.034981
      dxy     :     0.026984
  1 C s       :     2.893204  s :     2.893204
      pz      :     0.963042  p :     3.054280
      px      :     1.010742
      py      :     1.080496
      dz2     :     0.006112  d :     0.085925
      dxz     :     0.005504
      dyz     :     0.011996
      dx2y2   :     0.030220
      dxy     :     0.032093
  2 C s       :     2.876652  s :     2.876652
      pz      :     0.871174  p :     2.887747
      px      :     1.008899
      py      :     1.007674
      dz2     :     0.032211  d :     0.159176
      dxz     :     0.028432
      dyz     :     0.034420
      dx2y2   :     0.043259
      dxy     :     0.020855
  3 C s       :     2.885484  s :     2.885484
      pz      :     1.021210  p :     3.054039
      px      :     1.049876
      py      :     0.982953
      dz2     :     0.025185  d :     0.089416
      dxz     :     0.013631
      dyz     :     0.021493
      dx2y2   :     0.016426
      dxy     :     0.012680
  4 C s       :     2.876687  s :     2.876687
      pz      :     0.912636  p :     2.887697
      px      :     1.026211
      py      :     0.948850
      dz2     :     0.025887  d :     0.159120
      dxz     :     0.020159
      dyz     :     0.046104
      dx2y2   :     0.042002
      dxy     :     0.024968
  5 O s       :     3.537513  s :     3.537513
      pz      :     1.554510  p :     4.630801
      px      :     1.810994
      py      :     1.265296
      dz2     :     0.006284  d :     0.030247
      dxz     :     0.004405
      dyz     :     0.012938
      dx2y2   :     0.002996
      dxy     :     0.003623
  6 H s       :     0.898577  s :     0.898577
      pz      :     0.015229  p :     0.072349
      px      :     0.028014
      py      :     0.029106
  7 H s       :     0.898626  s :     0.898626
      pz      :     0.016042  p :     0.072360
      px      :     0.035248
      py      :     0.021070
  8 H s       :     0.916169  s :     0.916169
      pz      :     0.009381  p :     0.067286
      px      :     0.013414
      py      :     0.044491
  9 H s       :     0.902616  s :     0.902616
      pz      :     0.011293  p :     0.068173
      px      :     0.043246
      py      :     0.013634
 10 H s       :     0.910977  s :     0.910977
      pz      :     0.040137  p :     0.067967
      px      :     0.014899
      py      :     0.012931
 11 H s       :     0.916163  s :     0.916163
      pz      :     0.012438  p :     0.067283
      px      :     0.018117
      py      :     0.036728


                      *****************************
                      * MAYER POPULATION ANALYSIS *
                      *****************************

  NA   - Mulliken gross atomic population
  ZA   - Total nuclear charge
  QA   - Mulliken gross atomic charge
  VA   - Mayer's total valence
  BVA  - Mayer's bonded valence
  FA   - Mayer's free valence

  ATOM       NA         ZA         QA         VA         BVA        FA
  0 C      5.9993     6.0000     0.0007     3.7372     3.7372     0.0000
  1 C      5.9994     6.0000     0.0006     3.7376     3.7376     0.0000
  2 C      5.9349     6.0000     0.0651     3.8062     3.8062     0.0000
  3 C      5.9847     6.0000     0.0153     3.8735     3.8735    -0.0000
  4 C      5.9353     6.0000     0.0647     3.8058     3.8058     0.0000
  5 O      8.3741     8.0000    -0.3741     1.9562     1.9562    -0.0000
  6 H      0.9701     1.0000     0.0299     0.9915     0.9915     0.0000
  7 H      0.9704     1.0000     0.0296     0.9915     0.9915     0.0000
  8 H      0.9689     1.0000     0.0311     0.9899     0.9899     0.0000
  9 H      0.9451     1.0000     0.0549     0.9868     0.9868     0.0000
 10 H      0.9490     1.0000     0.0510     0.9806     0.9806    -0.0000
 11 H      0.9688     1.0000     0.0312     0.9900     0.9900     0.0000

  Mayer bond orders larger than 0.100000
B(  0-C ,  1-C ) :   1.8129 B(  0-C ,  4-C ) :   0.9168 B(  0-C ,  6-H ) :   1.0155 
B(  1-C ,  2-C ) :   0.9171 B(  1-C ,  7-H ) :   1.0154 B(  2-C ,  3-C ) :   0.9968 
B(  2-C ,  5-O ) :   0.9388 B(  2-C ,  8-H ) :   0.9771 B(  3-C ,  4-C ) :   0.9967 
B(  3-C ,  9-H ) :   0.9365 B(  3-C , 10-H ) :   0.9527 B(  4-C ,  5-O ) :   0.9387 
B(  4-C , 11-H ) :   0.9771 


------------------
HIRSHFELD ANALYSIS
------------------

Total integrated alpha density =     22.000000906
Total integrated beta density  =     22.000000906

  ATOM     CHARGE      SPIN    
   0 C   -0.046073    0.000000
   1 C   -0.046072    0.000000
   2 C    0.067456    0.000000
   3 C   -0.047531    0.000000
   4 C    0.067480    0.000000
   5 O   -0.219075    0.000000
   6 H    0.045494    0.000000
   7 H    0.045468    0.000000
   8 H    0.040134    0.000000
   9 H    0.029491    0.000000
  10 H    0.023092    0.000000
  11 H    0.040134    0.000000

  TOTAL  -0.000002    0.000000

-------
TIMINGS
-------

Total SCF time: 0 days 0 hours 0 min 4 sec 

Total time                  ....       4.129 sec
Sum of individual times     ....       4.017 sec  ( 97.3%)

Fock matrix formation       ....       3.468 sec  ( 84.0%)
  Split-RI-J                ....       0.377 sec  ( 10.9% of F)
  Chain of spheres X        ....       2.368 sec  ( 68.3% of F)
  XC integration            ....       0.701 sec  ( 20.2% of F)
    Basis function eval.    ....       0.256 sec  ( 36.6% of XC)
    Density eval.           ....       0.129 sec  ( 18.4% of XC)
    XC-Functional eval.     ....       0.071 sec  ( 10.1% of XC)
    XC-Potential eval.      ....       0.170 sec  ( 24.3% of XC)
Diagonalization             ....       0.021 sec  (  0.5%)
Density matrix formation    ....       0.002 sec  (  0.0%)
Population analysis         ....       0.077 sec  (  1.9%)
Initial guess               ....       0.029 sec  (  0.7%)
Orbital Transformation      ....       0.000 sec  (  0.0%)
Orbital Orthonormalization  ....       0.000 sec  (  0.0%)
DIIS solution               ....       0.019 sec  (  0.4%)
SOSCF solution              ....       0.013 sec  (  0.3%)
Grid generation             ....       0.389 sec  (  9.4%)

Maximum memory used throughout the entire SCF-calculation: 48.3 MB


-------------------------------------------------------------------------------
                          DFT DISPERSION CORRECTION                            
                                                                               
                              DFTD3 V3.1  Rev 1                                
                          USING Becke-Johnson damping                          
-------------------------------------------------------------------------------
The PBE0 functional is recognized
Active option DFTDOPT                   ...         4   

molecular C6(AA) [au] = 1321.958176 


            DFT-D V3
 parameters
 s6 scaling factor         :     1.0000 
 a1 scaling factor         :     0.4145 
 s8 scaling factor         :     1.2177 
 a2 scaling factor         :     4.8593 
 ad hoc parameters k1-k3   :    16.0000     1.3333    -4.0000 

 Edisp/kcal,au: -5.204066481669  -0.008293206942 
 E6   /kcal   :  -3.285592114 
 E8   /kcal   :  -1.918474367 
 % E8         :  36.864908895 

-------------------------   ----------------
Dispersion correction           -0.008293207
-------------------------   ----------------


-------------------------   --------------------
FINAL SINGLE POINT ENERGY      -268.760900937328
-------------------------   --------------------



           ************************************************************
           *        Program running with 8 parallel MPI-processes     *
           *              working on a common directory               *
           ************************************************************
------------------------------------------------------------------------------
                         ORCA SCF GRADIENT CALCULATION
------------------------------------------------------------------------------

 ... reading COSX grid (gridx3)
Gradient of the Kohn-Sham DFT energy:
Kohn-Sham wavefunction type      ... RKS
Hartree-Fock exchange scaling    ...    0.250
Number of operators              ...    1
Number of atoms                  ...   12
Basis set dimensions             ...  114
Integral neglect threshold       ... 2.5e-11
Integral primitive cutoff        ... 2.5e-12
SHARK Integral package           ... ON

Nuc. rep. gradient       (SHARK) ... done (  0.0 sec)
HCore & Overlap gradient (SHARK) ... done (  0.0 sec)
RI-J gradient            (SHARK) ... done (  0.1 sec)
COSX-gradient                    ... done (  0.5 sec)
Exchange-correlation gradient    ... done
Dispersion correction            ... done

------------------
CARTESIAN GRADIENT
------------------

   1   C   :    0.000342115   -0.000293394   -0.000022103
   2   C   :    0.000380726    0.000191880    0.000013341
   3   C   :    0.000203271   -0.000472107    0.000117246
   4   C   :   -0.000516993    0.000076518   -0.000244126
   5   C   :    0.000292096    0.000355496    0.000224056
   6   O   :   -0.000224448    0.000054785   -0.000488013
   7   H   :   -0.000310859   -0.000377831   -0.000101942
   8   H   :   -0.000226351    0.000455396   -0.000024725
   9   H   :   -0.000021553    0.000141466   -0.000043598
  10   H   :   -0.000022875   -0.000048574    0.000282825
  11   H   :    0.000009910   -0.000018996    0.000171697
  12   H   :   -0.000022896   -0.000173053   -0.000039020

Difference to translation invariance:
           :   -0.0001178566   -0.0001084141   -0.0001543619

Difference to rotation invariance:
           :   -0.0003208705    0.0003031014    0.0003665099

Norm of the cartesian gradient     ...    0.0014919366
RMS gradient                       ...    0.0002486561
MAX gradient                       ...    0.0005169934

-------
TIMINGS
-------

Total SCF gradient time            ...        1.091 sec

One electron gradient       ....       0.012 sec  (  1.1%)
RI-J Coulomb gradient       ....       0.102 sec  (  9.4%)
COSX gradient               ....       0.520 sec  ( 47.6%)
XC gradient                 ....       0.273 sec  ( 25.0%)

Maximum memory used throughout the entire SCFGRAD-calculation: 37.2 MB
------------------------------------------------------------------------------
                         ORCA GEOMETRY RELAXATION STEP
------------------------------------------------------------------------------

Reading the OPT-File                    .... done
Getting information on internals        .... done
Copying old internal coords+grads       .... done
Making the new internal coordinates     .... (new redundants).... done
Validating the new internal coordinates .... (new redundants).... done
Calculating the B-matrix                .... done
Calculating the G,G- and P matrices     .... done
Transforming gradient to internals      .... done
Projecting the internal gradient        .... done
Number of atoms                         ....  12
Number of internal coordinates          .... 109
Current Energy                          ....  -268.760900937 Eh
Current gradient norm                   ....     0.001491937 Eh/bohr
Maximum allowed component of the step   ....  0.300
Current trust radius                    ....  0.300
Evaluating the initial hessian          ....  (Almloef) done
Projecting the Hessian                  .... done
Forming the augmented Hessian           .... done
Diagonalizing the augmented Hessian     .... done
Last element of RFO vector              ....  0.999988936
Lowest eigenvalues of augmented Hessian:
 -0.000005878  0.011318294  0.016705570  0.017934551  0.022436793
Length of the computed step             ....  0.004703979
The final length of the internal step   ....  0.004703979
Converting the step to cartesian space:
 Initial RMS(Int)=    0.0004505595
Transforming coordinates:
 Iter   0:  RMS(Cart)=    0.0009135199 RMS(Int)=    0.0004505650
 Iter   1:  RMS(Cart)=    0.0000006340 RMS(Int)=    0.0000003732
 Iter   2:  RMS(Cart)=    0.0000000010 RMS(Int)=    0.0000000004
done
Storing new coordinates                 .... done

                                .--------------------.
          ----------------------|Geometry convergence|-------------------------
          Item                value                   Tolerance       Converged
          ---------------------------------------------------------------------
          RMS gradient        0.0001341131            0.0001000000      NO
          MAX gradient        0.0005644147            0.0003000000      NO
          RMS step            0.0004505595            0.0020000000      YES
          MAX step            0.0016190966            0.0040000000      YES
          ........................................................
          Max(Bonds)      0.0005      Max(Angles)    0.09
          Max(Dihed)        0.03      Max(Improp)    0.00
          ---------------------------------------------------------------------

The optimization has not yet converged - more geometry cycles are needed


    ---------------------------------------------------------------------------
                         Redundant Internal Coordinates
                            (Angstroem and degrees)

        Definition                    Value    dE/dq     Step     New-Value
    ----------------------------------------------------------------------------
     1. B(C   1,C   0)                1.3381  0.000556 -0.0004    1.3377   
     2. B(C   2,C   1)                1.5364  0.000086 -0.0001    1.5362   
     3. B(C   3,C   2)                1.5499  0.000160 -0.0002    1.5497   
     4. B(C   4,C   3)                1.5500  0.000161 -0.0002    1.5498   
     5. B(C   4,C   2)                1.9158 -0.000061  0.0005    1.9163   
     6. B(C   4,C   0)                1.5362  0.000086 -0.0001    1.5361   
     7. B(O   5,C   2)                1.4473  0.000158 -0.0002    1.4471   
     8. B(O   5,C   4)                1.4475  0.000157 -0.0002    1.4473   
     9. B(H   6,C   0)                1.0893  0.000079 -0.0001    1.0892   
    10. B(H   7,C   1)                1.0892  0.000081 -0.0001    1.0891   
    11. B(H   8,C   2)                1.0982  0.000152 -0.0002    1.0980   
    12. B(H   9,C   3)                1.1000  0.000001 -0.0000    1.0999   
    13. B(H  10,C   3)                1.0999  0.000172 -0.0003    1.0996   
    14. B(H  11,C   4)                1.0982  0.000153 -0.0002    1.0980   
    15. A(C   1,C   0,H   6)          131.51  0.000564   -0.09    131.42   
    16. A(C   1,C   0,C   4)          100.83 -0.000116    0.02    100.85   
    17. A(C   4,C   0,H   6)          127.66 -0.000449    0.07    127.73   
    18. A(C   0,C   1,H   7)          131.51  0.000559   -0.09    131.42   
    19. A(C   2,C   1,H   7)          127.65 -0.000447    0.07    127.72   
    20. A(C   0,C   1,C   2)          100.84 -0.000112    0.02    100.86   
    21. A(C   4,C   2,O   5)           48.57  0.000065   -0.02     48.55   
    22. A(C   1,C   2,H   8)          120.13 -0.000121    0.03    120.15   
    23. A(O   5,C   2,H   8)          115.10 -0.000059    0.02    115.11   
    24. A(C   3,C   2,O   5)           87.77  0.000078   -0.02     87.76   
    25. A(C   1,C   2,O   5)          102.00  0.000096   -0.02    101.99   
    26. A(C   3,C   2,C   4)           51.83  0.000056   -0.02     51.81   
    27. A(C   1,C   2,C   4)           79.16  0.000113   -0.02     79.14   
    28. A(C   1,C   2,C   3)          101.60  0.000146   -0.04    101.56   
    29. A(C   4,C   2,H   8)          159.27  0.000006   -0.01    159.26   
    30. A(C   3,C   2,H   8)          123.99 -0.000061    0.01    124.00   
    31. A(C   2,C   3,C   4)           76.34 -0.000113    0.03     76.38   
    32. A(C   4,C   3,H   9)          112.55  0.000106   -0.05    112.50   
    33. A(C   2,C   3,H   9)          112.56  0.000106   -0.05    112.52   
    34. A(C   2,C   3,H  10)          119.23  0.000031    0.01    119.24   
    35. A(H   9,C   3,H  10)          112.39 -0.000128    0.04    112.43   
    36. A(C   4,C   3,H  10)          119.24  0.000032    0.01    119.25   
    37. A(C   3,C   4,O   5)           87.76  0.000079   -0.02     87.74   
    38. A(C   2,C   4,O   5)           48.56  0.000066   -0.02     48.54   
    39. A(C   0,C   4,O   5)          102.00  0.000098   -0.02    101.99   
    40. A(C   0,C   4,C   2)           79.17  0.000115   -0.02     79.15   
    41. A(C   2,C   4,C   3)           51.83  0.000056   -0.02     51.81   
    42. A(O   5,C   4,H  11)          115.11 -0.000057    0.01    115.13   
    43. A(C   0,C   4,H  11)          120.11 -0.000127    0.03    120.14   
    44. A(C   2,C   4,H  11)          159.27  0.000010   -0.01    159.27   
    45. A(C   3,C   4,H  11)          123.99 -0.000059    0.01    124.00   
    46. A(C   0,C   4,C   3)          101.61  0.000148   -0.04    101.57   
    47. A(C   2,O   5,C   4)           82.88 -0.000131    0.04     82.91   
    48. D(C   2,C   1,C   0,C   4)     -0.01  0.000000   -0.00     -0.01   
    49. D(H   7,C   1,C   0,H   6)      0.00 -0.000001    0.00      0.00   
    50. D(C   2,C   1,C   0,H   6)    179.94  0.000005    0.01    179.95   
    51. D(H   7,C   1,C   0,C   4)   -179.95 -0.000005   -0.00   -179.95   
    52. D(C   4,C   2,C   1,H   7)    179.95  0.000006    0.00    179.95   
    53. D(H   8,C   2,C   1,H   7)      8.13  0.000005   -0.00      8.13   
    54. D(C   3,C   2,C   1,C   0)     47.03  0.000048   -0.01     47.02   
    55. D(O   5,C   2,C   1,H   7)    136.80 -0.000078    0.03    136.82   
    56. D(C   4,C   2,C   1,C   0)      0.01 -0.000000    0.00      0.01   
    57. D(C   3,C   2,C   1,H   7)   -133.03  0.000054   -0.01   -133.03   
    58. D(O   5,C   2,C   1,C   0)    -43.15 -0.000084    0.02    -43.12   
    59. D(H   8,C   2,C   1,C   0)   -171.81 -0.000001   -0.00   -171.81   
    60. D(C   4,C   3,C   2,O   5)     35.73  0.000064   -0.02     35.70   
    61. D(H   9,C   3,C   2,O   5)    -73.32  0.000000    0.01    -73.31   
    62. D(C   4,C   3,C   2,H   8)    154.79  0.000028   -0.01    154.78   
    63. D(H  10,C   3,C   2,C   1)     50.04 -0.000070    0.02     50.06   
    64. D(H  10,C   3,C   2,C   4)    116.11 -0.000020    0.02    116.13   
    65. D(H   9,C   3,C   2,H   8)     45.74 -0.000035    0.02     45.76   
    66. D(C   4,C   3,C   2,C   1)    -66.07 -0.000051   -0.00    -66.07   
    67. D(H  10,C   3,C   2,O   5)    151.83  0.000044    0.00    151.84   
    68. D(H  10,C   3,C   2,H   8)    -89.11  0.000008    0.01    -89.09   
    69. D(H   9,C   3,C   2,C   4)   -109.05 -0.000063    0.03   -109.01   
    70. D(H   9,C   3,C   2,C   1)   -175.12 -0.000114    0.03   -175.09   
    71. D(H  11,C   4,C   0,C   1)    171.82  0.000002    0.00    171.83   
    72. D(O   5,C   4,C   0,C   1)     43.15  0.000085   -0.02     43.13   
    73. D(H  11,C   4,C   3,H  10)     89.11 -0.000011   -0.01     89.09   
    74. D(C   3,C   4,C   0,H   6)    133.03 -0.000054    0.00    133.04   
    75. D(O   5,C   4,C   0,H   6)   -136.80  0.000079   -0.03   -136.83   
    76. D(H  11,C   4,C   0,H   6)     -8.13 -0.000003   -0.00     -8.13   
    77. D(O   5,C   4,C   3,H   9)     73.34 -0.000000   -0.01     73.33   
    78. D(C   3,C   4,C   0,C   1)    -47.02 -0.000049    0.01    -47.01   
    79. D(C   2,C   4,C   0,H   6)   -179.94 -0.000005   -0.01   -179.95   
    80. D(C   2,C   4,C   3,H   9)    109.07  0.000064   -0.03    109.03   
    81. D(C   0,C   4,C   3,H  10)    -50.02  0.000073   -0.02    -50.05   
    82. D(C   2,C   4,C   0,C   1)      0.01 -0.000000    0.00      0.01   
    83. D(C   0,C   4,C   3,C   2)     66.08  0.000052    0.00     66.08   
    84. D(H  11,C   4,C   2,H   8)     -0.01  0.000000   -0.00     -0.01   
    85. D(H  11,C   4,C   2,O   5)    -42.81  0.000008   -0.02    -42.83   
    86. D(H  11,C   4,C   2,C   3)     86.09 -0.000034    0.00     86.09   
    87. D(H  11,C   4,C   2,C   1)   -159.65  0.000031   -0.02   -159.67   
    88. D(O   5,C   4,C   2,H   8)     42.80 -0.000008    0.02     42.82   
    89. D(O   5,C   4,C   2,C   3)    128.90 -0.000042    0.02    128.92   
    90. D(O   5,C   4,C   2,C   1)   -116.84  0.000023   -0.01   -116.84   
    91. D(C   3,C   4,C   2,H   8)    -86.10  0.000034   -0.00    -86.10   
    92. D(C   3,C   4,C   2,O   5)   -128.90  0.000042   -0.02   -128.92   
    93. D(C   0,C   4,C   3,H   9)    175.14  0.000116   -0.03    175.11   
    94. D(C   3,C   4,C   2,C   1)    114.26  0.000065   -0.03    114.24   
    95. D(C   0,C   4,C   2,H   8)    159.64 -0.000030    0.02    159.66   
    96. D(C   2,C   4,C   3,H  10)   -116.10  0.000021   -0.02   -116.12   
    97. D(O   5,C   4,C   3,C   2)    -35.72 -0.000064    0.02    -35.70   
    98. D(C   0,C   4,C   2,O   5)    116.83 -0.000022    0.01    116.84   
    99. D(O   5,C   4,C   3,H  10)   -151.82 -0.000043   -0.00   -151.82   
   100. D(H  11,C   4,C   3,C   2)   -154.80 -0.000032    0.01   -154.78   
   101. D(H  11,C   4,C   3,H   9)    -45.73  0.000031   -0.02    -45.75   
   102. D(C   0,C   4,C   2,C   3)   -114.27 -0.000064    0.03   -114.24   
   103. D(C   0,C   4,C   2,C   1)     -0.00  0.000000   -0.00     -0.00   
   104. D(C   2,O   5,C   4,H  11)    164.60  0.000017   -0.01    164.58   
   105. D(C   2,O   5,C   4,C   3)     37.76  0.000058   -0.02     37.73   
   106. D(C   2,O   5,C   4,C   0)    -63.64 -0.000109    0.02    -63.62   
   107. D(C   4,O   5,C   2,H   8)   -164.60 -0.000014    0.01   -164.58   
   108. D(C   4,O   5,C   2,C   3)    -37.76 -0.000058    0.02    -37.73   
   109. D(C   4,O   5,C   2,C   1)     63.63  0.000108   -0.02     63.61   
    ----------------------------------------------------------------------------

         *************************************************************
         *                GEOMETRY OPTIMIZATION CYCLE   2            *
         *************************************************************
---------------------------------
CARTESIAN COORDINATES (ANGSTROEM)
---------------------------------
  C      1.085105   -0.783366   -0.194870
  C      1.241130    0.535776   -0.037070
  C     -0.208724    1.019284   -0.192353
  C     -0.966839    0.027624    0.726059
  C     -0.432155   -0.870447   -0.418212
  O     -0.667277    0.236894   -1.320024
  H      1.804394   -1.601096   -0.178082
  H      2.128438    1.139115    0.149661
  H     -0.428689    2.093420   -0.250188
  H     -2.057655    0.161769    0.681197
  H     -0.606303   -0.137486    1.751714
  H     -0.891525   -1.821587   -0.718031

----------------------------
CARTESIAN COORDINATES (A.U.)
----------------------------
  NO LB      ZA    FRAG     MASS         X           Y           Z
   0 C     6.0000    0    12.011    2.050552   -1.480346   -0.368252
   1 C     6.0000    0    12.011    2.345395    1.012470   -0.070052
   2 C     6.0000    0    12.011   -0.394430    1.926168   -0.363495
   3 C     6.0000    0    12.011   -1.827062    0.052202    1.372053
   4 C     6.0000    0    12.011   -0.816655   -1.644907   -0.790307
   5 O     8.0000    0    15.999   -1.260971    0.447664   -2.494483
   6 H     1.0000    0     1.008    3.409811   -3.025632   -0.336527
   7 H     1.0000    0     1.008    4.022165    2.152615    0.282818
   8 H     1.0000    0     1.008   -0.810104    3.955990   -0.472787
   9 H     1.0000    0     1.008   -3.888405    0.305699    1.287276
  10 H     1.0000    0     1.008   -1.145747   -0.259811    3.310260
  11 H     1.0000    0     1.008   -1.684738   -3.442301   -1.356881

--------------------------------
INTERNAL COORDINATES (ANGSTROEM)
--------------------------------
 C      0   0   0     0.000000000000     0.00000000     0.00000000
 C      1   0   0     1.337676763105     0.00000000     0.00000000
 C      2   1   0     1.536218674135   100.85784424     0.00000000
 C      3   2   1     1.549713140959   101.55972938    47.02231119
 C      1   2   3     1.536080728010   100.85164254     0.00000000
 O      3   2   1     1.447082301767   101.98567209   316.87603198
 H      1   2   3     1.089192898092   131.41584804   179.94541943
 H      2   1   3     1.089128911141   131.41731444   180.05750256
 H      3   2   1     1.097950932610   120.15329175   188.18732405
 H      4   3   2     1.099948543490   112.51501478   184.91236886
 H      4   3   2     1.099643337111   119.23858976    50.05802265
 H      5   1   2     1.097988648799   120.13632523   171.82775080

---------------------------
INTERNAL COORDINATES (A.U.)
---------------------------
 C      0   0   0     0.000000000000     0.00000000     0.00000000
 C      1   0   0     2.527842737979     0.00000000     0.00000000
 C      2   1   0     2.903032575931   100.85784424     0.00000000
 C      3   2   1     2.928533422552   101.55972938    47.02231119
 C      1   2   3     2.902771895533   100.85164254     0.00000000
 O      3   2   1     2.734589243583   101.98567209   316.87603198
 H      1   2   3     2.058276284406   131.41584804   179.94541943
 H      2   1   3     2.058155366593   131.41731444   180.05750256
 H      3   2   1     2.074826571116   120.15329175   188.18732405
 H      4   3   2     2.078601508602   112.51501478   184.91236886
 H      4   3   2     2.078024752132   119.23858976    50.05802265
 H      5   1   2     2.074897844384   120.13632523   171.82775080



           ************************************************************
           *        Program running with 8 parallel MPI-processes     *
           *              working on a common directory               *
           ************************************************************
------------------------------------------------------------------------------
                   ___                                                        
                  /   \      - P O W E R E D   B Y -                         
                 /     \                                                     
                 |  |  |   _    _      __       _____    __    __             
                 |  |  |  | |  | |    /  \     |  _  \  |  |  /  |          
                  \  \/   | |  | |   /    \    | | | |  |  | /  /          
                 / \  \   | |__| |  /  /\  \   | |_| |  |  |/  /          
                |  |  |   |  __  | /  /__\  \  |    /   |      \           
                |  |  |   | |  | | |   __   |  |    \   |  |\   \          
                \     /   | |  | | |  |  |  |  | |\  \  |  | \   \       
                 \___/    |_|  |_| |__|  |__|  |_| \__\ |__|  \__/        
                                                                              
                      - O R C A' S   B I G   F R I E N D -                    
[...]
  Last Orbital Gradient      ...    1.8593e-06  Tolerance :   1.0000e-05
  Last Orbital Rotation      ...    1.7906e-06  Tolerance :   1.0000e-05

             **** THE GBW FILE WAS UPDATED (p0_C5H6O_opt_orca.gbw) ****
             **** DENSITY p0_C5H6O_opt_orca.scfp WAS UPDATED ****
             **** ENERGY FILE WAS UPDATED (p0_C5H6O_opt_orca.en.tmp) ****
             **** THE GBW FILE WAS UPDATED (p0_C5H6O_opt_orca.gbw) ****
             **** DENSITY p0_C5H6O_opt_orca.scfp WAS UPDATED ****
----------------
ORBITAL ENERGIES
----------------

  NO   OCC          E(Eh)            E(eV) 
   0   2.0000     -19.200703      -522.4777 
   1   2.0000     -10.293573      -280.1024 
   2   2.0000     -10.293532      -280.1013 
   3   2.0000     -10.244441      -278.7654 
   4   2.0000     -10.239440      -278.6293 
   5   2.0000     -10.238570      -278.6057 
   6   2.0000      -1.086270       -29.5589 
   7   2.0000      -0.827295       -22.5119 
   8   2.0000      -0.731461       -19.9041 
   9   2.0000      -0.711104       -19.3501 
  10   2.0000      -0.569054       -15.4847 
  11   2.0000      -0.556795       -15.1512 
  12   2.0000      -0.549213       -14.9448 
  13   2.0000      -0.489649       -13.3240 
  14   2.0000      -0.436427       -11.8758 
  15   2.0000      -0.433073       -11.7845 
  16   2.0000      -0.411130       -11.1874 
  17   2.0000      -0.371038       -10.0965 
  18   2.0000      -0.351707        -9.5704 
  19   2.0000      -0.345163        -9.3924 
  20   2.0000      -0.271319        -7.3830 
  21   2.0000      -0.253817        -6.9067 
  22   0.0000      -0.002780        -0.0757 
  23   0.0000       0.081047         2.2054 
  24   0.0000       0.112446         3.0598 
  25   0.0000       0.116726         3.1763 
  26   0.0000       0.121018         3.2931 
  27   0.0000       0.130101         3.5402 
  28   0.0000       0.135842         3.6964 
  29   0.0000       0.148552         4.0423 
  30   0.0000       0.182778         4.9736 
  31   0.0000       0.206007         5.6057 
  32   0.0000       0.222956         6.0669 
  33   0.0000       0.246933         6.7194 
  34   0.0000       0.285290         7.7631 
  35   0.0000       0.361744         9.8436 
  36   0.0000       0.399129        10.8609 
  37   0.0000       0.439686        11.9645 
  38   0.0000       0.469921        12.7872 
  39   0.0000       0.488009        13.2794 
  40   0.0000       0.501742        13.6531 
  41   0.0000       0.532000        14.4764 
  42   0.0000       0.561353        15.2752 
  43   0.0000       0.561374        15.2758 
  44   0.0000       0.582518        15.8511 
  45   0.0000       0.589399        16.0384 
  46   0.0000       0.615511        16.7489 
  47   0.0000       0.641997        17.4696 
  48   0.0000       0.646435        17.5904 
  49   0.0000       0.658945        17.9308 
  50   0.0000       0.676290        18.4028 
  51   0.0000       0.692516        18.8443 
  52   0.0000       0.700666        19.0661 
  53   0.0000       0.703443        19.1416 
  54   0.0000       0.731239        19.8980 
  55   0.0000       0.795660        21.6510 
  56   0.0000       0.828726        22.5508 
  57   0.0000       0.839911        22.8551 
  58   0.0000       0.902977        24.5713 
  59   0.0000       0.995384        27.0858 
  60   0.0000       1.027948        27.9719 
  61   0.0000       1.151892        31.3446 
  62   0.0000       1.215932        33.0872 
  63   0.0000       1.267874        34.5006 
  64   0.0000       1.307151        35.5694 
  65   0.0000       1.316766        35.8310 
  66   0.0000       1.354493        36.8576 
  67   0.0000       1.367367        37.2079 
  68   0.0000       1.443602        39.2824 
  69   0.0000       1.460043        39.7298 
  70   0.0000       1.552455        42.2445 
  71   0.0000       1.557539        42.3828 
  72   0.0000       1.614845        43.9422 
  73   0.0000       1.617964        44.0270 
  74   0.0000       1.681360        45.7521 
  75   0.0000       1.684076        45.8260 
  76   0.0000       1.716666        46.7129 
  77   0.0000       1.727682        47.0126 
  78   0.0000       1.746735        47.5311 
  79   0.0000       1.771711        48.2107 
  80   0.0000       1.844976        50.2043 
  81   0.0000       1.869332        50.8671 
  82   0.0000       1.894665        51.5564 
  83   0.0000       1.939374        52.7731 
  84   0.0000       1.981564        53.9211 
  85   0.0000       2.008680        54.6589 
  86   0.0000       2.011760        54.7428 
  87   0.0000       2.055570        55.9349 
  88   0.0000       2.073360        56.4190 
  89   0.0000       2.100461        57.1565 
  90   0.0000       2.130856        57.9835 
  91   0.0000       2.192621        59.6642 
  92   0.0000       2.193504        59.6883 
  93   0.0000       2.250381        61.2360 
  94   0.0000       2.308558        62.8191 
  95   0.0000       2.309444        62.8432 
  96   0.0000       2.437939        66.3397 
  97   0.0000       2.448358        66.6232 
  98   0.0000       2.541787        69.1655 
  99   0.0000       2.569660        69.9240 
 100   0.0000       2.639424        71.8224 
 101   0.0000       2.687326        73.1259 
 102   0.0000       2.713897        73.8489 
 103   0.0000       2.808946        76.4353 
 104   0.0000       2.893023        78.7232 
 105   0.0000       2.911983        79.2391 
 106   0.0000       2.953998        80.3824 
 107   0.0000       2.975696        80.9728 
 108   0.0000       3.017341        82.1060 
 109   0.0000       3.053158        83.0807 
 110   0.0000       3.112949        84.7076 
 111   0.0000       3.271489        89.0217 
 112   0.0000       3.413276        92.8800 
 113   0.0000       3.534688        96.1838 

                    ********************************
                    * MULLIKEN POPULATION ANALYSIS *
                    ********************************

-----------------------
MULLIKEN ATOMIC CHARGES
-----------------------
   0 C :    0.000313
   1 C :    0.000253
   2 C :    0.065505
   3 C :    0.015761
   4 C :    0.065072
   5 O :   -0.373935
   6 H :    0.029602
   7 H :    0.029298
   8 H :    0.031145
   9 H :    0.054784
  10 H :    0.050982
  11 H :    0.031220
Sum of atomic charges:    0.0000000

--------------------------------
MULLIKEN REDUCED ORBITAL CHARGES
--------------------------------
  0 C s       :     3.225939  s :     3.225939
      pz      :     0.989718  p :     2.739879
      px      :     0.858396
      py      :     0.891765
      dz2     :     0.002990  d :     0.033870
      dxz     :     0.003166
      dyz     :     0.006026
      dx2y2   :     0.011265
      dxy     :     0.010423
  1 C s       :     3.226052  s :     3.226052
      pz      :     0.982386  p :     2.739832
      px      :     0.823693
      py      :     0.933753
      dz2     :     0.002839  d :     0.033864
      dxz     :     0.002965
      dyz     :     0.006174
      dx2y2   :     0.010137
      dxy     :     0.011749
  2 C s       :     3.258654  s :     3.258654
      pz      :     0.770171  p :     2.603063
      px      :     0.918707
      py      :     0.914185
      dz2     :     0.015299  d :     0.072778
      dxz     :     0.013310
      dyz     :     0.015702
      dx2y2   :     0.017783
      dxy     :     0.010685
  3 C s       :     3.105696  s :     3.105696
      pz      :     0.957008  p :     2.843378
      px      :     1.005087
      py      :     0.881283
      dz2     :     0.010134  d :     0.035165
      dxz     :     0.005684
      dyz     :     0.007877
      dx2y2   :     0.006633
      dxy     :     0.004837
  4 C s       :     3.258797  s :     3.258797
      pz      :     0.824749  p :     2.603377
      px      :     0.932123
      py      :     0.846506
      dz2     :     0.012308  d :     0.072754
      dxz     :     0.009768
      dyz     :     0.020161
      dx2y2   :     0.017861
      dxy     :     0.012656
  5 O s       :     3.830157  s :     3.830157
      pz      :     1.505337  p :     4.525557
      px      :     1.816548
      py      :     1.203672
      dz2     :     0.004253  d :     0.018221
      dxz     :     0.003404
      dyz     :     0.007026
      dx2y2   :     0.001659
      dxy     :     0.001879
  6 H s       :     0.946108  s :     0.946108
      pz      :     0.005170  p :     0.024290
      px      :     0.008853
      py      :     0.010267
  7 H s       :     0.946410  s :     0.946410
      pz      :     0.005446  p :     0.024292
      px      :     0.011632
      py      :     0.007213
  8 H s       :     0.947198  s :     0.947198
      pz      :     0.002864  p :     0.021657
      px      :     0.003874
      py      :     0.014919
  9 H s       :     0.922718  s :     0.922718
      pz      :     0.003639  p :     0.022498
      px      :     0.014665
      py      :     0.004194
 10 H s       :     0.926888  s :     0.926888
      pz      :     0.013190  p :     0.022130
      px      :     0.004991
      py      :     0.003949
 11 H s       :     0.947122  s :     0.947122
      pz      :     0.003885  p :     0.021658
      px      :     0.005606
      py      :     0.012167


                     *******************************
                     * LOEWDIN POPULATION ANALYSIS *
                     *******************************

----------------------
LOEWDIN ATOMIC CHARGES
----------------------
   0 C :   -0.033756
   1 C :   -0.033698
   2 C :    0.076538
   3 C :   -0.028782
   4 C :    0.076620
   5 O :   -0.198280
   6 H :    0.029042
   7 H :    0.028981
   8 H :    0.016583
   9 H :    0.029174
  10 H :    0.020982
  11 H :    0.016595

-------------------------------
LOEWDIN REDUCED ORBITAL CHARGES
-------------------------------
  0 C s       :     2.892992  s :     2.892992
      pz      :     0.964626  p :     3.054760
      px      :     1.012273
      py      :     1.077861
      dz2     :     0.006666  d :     0.086004
      dxz     :     0.006342
      dyz     :     0.010999
      dx2y2   :     0.034950
      dxy     :     0.027047
  1 C s       :     2.893025  s :     2.893025
      pz      :     0.963051  p :     3.054677
      px      :     1.010608
      py      :     1.081018
      dz2     :     0.006116  d :     0.085996
      dxz     :     0.005519
      dyz     :     0.012015
      dx2y2   :     0.030306
      dxy     :     0.032040
  2 C s       :     2.876491  s :     2.876491
      pz      :     0.871263  p :     2.887807
      px      :     1.008799
      py      :     1.007745
      dz2     :     0.032167  d :     0.159164
      dxz     :     0.028402
      dyz     :     0.034472
      dx2y2   :     0.043230
      dxy     :     0.020893
  3 C s       :     2.885459  s :     2.885459
      pz      :     1.021303  p :     3.053804
      px      :     1.049829
      py      :     0.982671
      dz2     :     0.025236  d :     0.089520
      dxz     :     0.013616
      dyz     :     0.021535
      dx2y2   :     0.016460
      dxy     :     0.012673
  4 C s       :     2.876534  s :     2.876534
      pz      :     0.912750  p :     2.887747
      px      :     1.026115
      py      :     0.948882
      dz2     :     0.025870  d :     0.159099
      dxz     :     0.020126
      dyz     :     0.046108
      dx2y2   :     0.041980
      dxy     :     0.025016
  5 O s       :     3.537105  s :     3.537105
      pz      :     1.555028  p :     4.630895
      px      :     1.810941
      py      :     1.264925
      dz2     :     0.006289  d :     0.030281
      dxz     :     0.004404
      dyz     :     0.012953
      dx2y2   :     0.003004
      dxy     :     0.003631
  6 H s       :     0.898585  s :     0.898585
      pz      :     0.015257  p :     0.072373
      px      :     0.028199
      py      :     0.028917
  7 H s       :     0.898634  s :     0.898634
      pz      :     0.016067  p :     0.072385
      px      :     0.035404
      py      :     0.020914
  8 H s       :     0.916085  s :     0.916085
      pz      :     0.009394  p :     0.067332
      px      :     0.013434
      py      :     0.044504
  9 H s       :     0.902645  s :     0.902645
      pz      :     0.011297  p :     0.068180
      px      :     0.043233
      py      :     0.013651
 10 H s       :     0.911000  s :     0.911000
      pz      :     0.040180  p :     0.068018
      px      :     0.014905
      py      :     0.012933
 11 H s       :     0.916076  s :     0.916076
      pz      :     0.012451  p :     0.067329
      px      :     0.018149
      py      :     0.036729


                      *****************************
                      * MAYER POPULATION ANALYSIS *
                      *****************************

  NA   - Mulliken gross atomic population
  ZA   - Total nuclear charge
  QA   - Mulliken gross atomic charge
  VA   - Mayer's total valence
  BVA  - Mayer's bonded valence
  FA   - Mayer's free valence

  ATOM       NA         ZA         QA         VA         BVA        FA
  0 C      5.9997     6.0000     0.0003     3.7377     3.7377    -0.0000
  1 C      5.9997     6.0000     0.0003     3.7381     3.7381     0.0000
  2 C      5.9345     6.0000     0.0655     3.8062     3.8062     0.0000
  3 C      5.9842     6.0000     0.0158     3.8733     3.8733    -0.0000
  4 C      5.9349     6.0000     0.0651     3.8059     3.8059     0.0000
  5 O      8.3739     8.0000    -0.3739     1.9563     1.9563     0.0000
  6 H      0.9704     1.0000     0.0296     0.9915     0.9915     0.0000
  7 H      0.9707     1.0000     0.0293     0.9915     0.9915     0.0000
  8 H      0.9689     1.0000     0.0311     0.9900     0.9900     0.0000
  9 H      0.9452     1.0000     0.0548     0.9868     0.9868     0.0000
 10 H      0.9490     1.0000     0.0510     0.9806     0.9806    -0.0000
 11 H      0.9688     1.0000     0.0312     0.9900     0.9900     0.0000

  Mayer bond orders larger than 0.100000
B(  0-C ,  1-C ) :   1.8142 B(  0-C ,  4-C ) :   0.9162 B(  0-C ,  6-H ) :   1.0154 
B(  1-C ,  2-C ) :   0.9165 B(  1-C ,  7-H ) :   1.0154 B(  2-C ,  3-C ) :   0.9970 
B(  2-C ,  5-O ) :   0.9389 B(  2-C ,  8-H ) :   0.9773 B(  3-C ,  4-C ) :   0.9969 
B(  3-C ,  9-H ) :   0.9364 B(  3-C , 10-H ) :   0.9527 B(  4-C ,  5-O ) :   0.9388 
B(  4-C , 11-H ) :   0.9773 


------------------
HIRSHFELD ANALYSIS
------------------

Total integrated alpha density =     22.000001185
Total integrated beta density  =     22.000001185

  ATOM     CHARGE      SPIN    
   0 C   -0.046283    0.000000
   1 C   -0.046282    0.000000
   2 C    0.067583    0.000000
   3 C   -0.047514    0.000000
   4 C    0.067611    0.000000
   5 O   -0.218925    0.000000
   6 H    0.045382    0.000000
   7 H    0.045359    0.000000
   8 H    0.040271    0.000000
   9 H    0.029356    0.000000
  10 H    0.023164    0.000000
  11 H    0.040275    0.000000

  TOTAL  -0.000002    0.000000

-------
TIMINGS
-------

Total SCF time: 0 days 0 hours 0 min 2 sec 

Total time                  ....       2.601 sec
Sum of individual times     ....       2.495 sec  ( 95.9%)

Fock matrix formation       ....       2.044 sec  ( 78.6%)
  Split-RI-J                ....       0.229 sec  ( 11.2% of F)
  Chain of spheres X        ....       1.537 sec  ( 75.2% of F)
  XC integration            ....       0.273 sec  ( 13.4% of F)
    Basis function eval.    ....       0.106 sec  ( 38.7% of XC)
    Density eval.           ....       0.052 sec  ( 18.9% of XC)
    XC-Functional eval.     ....       0.029 sec  ( 10.6% of XC)
    XC-Potential eval.      ....       0.054 sec  ( 19.9% of XC)
Diagonalization             ....       0.003 sec  (  0.1%)
Density matrix formation    ....       0.001 sec  (  0.0%)
Population analysis         ....       0.071 sec  (  2.7%)
Initial guess               ....       0.005 sec  (  0.2%)
Orbital Transformation      ....       0.000 sec  (  0.0%)
Orbital Orthonormalization  ....       0.002 sec  (  0.1%)
DIIS solution               ....       0.002 sec  (  0.1%)
SOSCF solution              ....       0.010 sec  (  0.4%)
Grid generation             ....       0.358 sec  ( 13.8%)

Maximum memory used throughout the entire SCF-calculation: 48.4 MB


-------------------------------------------------------------------------------
                          DFT DISPERSION CORRECTION                            
                                                                               
                              DFTD3 V3.1  Rev 1                                
                          USING Becke-Johnson damping                          
-------------------------------------------------------------------------------
The PBE0 functional is recognized
Active option DFTDOPT                   ...         4   

molecular C6(AA) [au] = 1321.868342 


            DFT-D V3
 parameters
 s6 scaling factor         :     1.0000 
 a1 scaling factor         :     0.4145 
 s8 scaling factor         :     1.2177 
 a2 scaling factor         :     4.8593 
 ad hoc parameters k1-k3   :    16.0000     1.3333    -4.0000 

 Edisp/kcal,au: -5.204234979622  -0.008293475461 
 E6   /kcal   :  -3.285729427 
 E8   /kcal   :  -1.918505553 
 % E8         :  36.864314546 

-------------------------   ----------------
Dispersion correction           -0.008293475
-------------------------   ----------------


-------------------------   --------------------
FINAL SINGLE POINT ENERGY      -268.760909316205
-------------------------   --------------------

                                *** OPTIMIZATION RUN DONE ***

                            ***************************************
                            *     ORCA property calculations      *
                            ***************************************

                                    ---------------------
                                    Active property flags
                                    ---------------------
   (+) Dipole Moment


------------------------------------------------------------------------------
                       ORCA ELECTRIC PROPERTIES CALCULATION
------------------------------------------------------------------------------

Dipole Moment Calculation                       ... on
Quadrupole Moment Calculation                   ... off
Polarizability Calculation                      ... off
GBWName                                         ... p0_C5H6O_opt_orca.gbw
Electron density                                ... p0_C5H6O_opt_orca.scfp
The origin for moment calculation is the CENTER OF MASS  = (-0.048961,  0.063777 -0.484771)

-------------
DIPOLE MOMENT
-------------
                                X             Y             Z
Electronic contribution:      0.10199       0.23549      -2.06954
Nuclear contribution   :      0.09055      -0.34278       2.77527
                        -----------------------------------------
Total Dipole Moment    :      0.19254      -0.10730       0.70573
                        -----------------------------------------
Magnitude (a.u.)       :      0.73935
Magnitude (Debye)      :      1.87928



--------------------
Rotational spectrum 
--------------------
 
Rotational constants in cm-1:     0.210061     0.162928     0.149883 
Rotational constants in MHz :  6297.470228  4884.473157  4493.367841 

 Dipole components along the rotational axes: 
x,y,z [a.u.] :     0.266455     0.000195     0.689666 
x,y,z [Debye]:     0.677274     0.000496     1.752993 

 

Timings for individual modules:

Sum of individual times         ...       19.819 sec (=   0.330 min)
GTO integral calculation        ...        1.593 sec (=   0.027 min)   8.0 %
SCF iterations                  ...       13.879 sec (=   0.231 min)  70.0 %
SCF Gradient evaluation         ...        4.243 sec (=   0.071 min)  21.4 %
Geometry relaxation             ...        0.104 sec (=   0.002 min)   0.5 %
                             ****ORCA TERMINATED NORMALLY****
TOTAL RUN TIME: 0 days 0 hours 0 minutes 20 seconds 979 msec
