
                                 *****************
                                 * O   R   C   A *
                                 *****************

                                            #,                                       
                                            ###                                      
                                            ####                                     
                                            #####                                    
                                            ######                                   
                                           ########,                                 
                                     ,,################,,,,,                         
                               ,,#################################,,                 
                          ,,##########################################,,             
                       ,#########################################, ''#####,          
                    ,#############################################,,   '####,        
                  ,##################################################,,,,####,       
                ,###########''''           ''''###############################       
              ,#####''   ,,,,##########,,,,          '''####'''          '####       
            ,##' ,,,,###########################,,,                        '##       
           ' ,,###''''                  '''############,,,                           
         ,,##''                                '''############,,,,        ,,,,,,###''
      ,#''                                            '''#######################'''  
     '                                                          ''''####''''         
             ,#######,   #######,   ,#######,      ##                                
            ,#'     '#,  ##    ##  ,#'     '#,    #''#        ######   ,####,        
            ##       ##  ##   ,#'  ##            #'  '#       #        #'  '#        
            ##       ##  #######   ##           ,######,      #####,   #    #        
            '#,     ,#'  ##    ##  '#,     ,#' ,#      #,         ##   #,  ,#        
             '#######'   ##     ##  '#######'  #'      '#     #####' # '####'        



                  #######################################################
                  #                        -***-                        #
                  #          Department of theory and spectroscopy      #
                  #    Directorship and core code : Frank Neese         #
                  #        Max Planck Institute fuer Kohlenforschung    #
                  #                Kaiser Wilhelm Platz 1               #
                  #                 D-45470 Muelheim/Ruhr               #
                  #                      Germany                        #
                  #                                                     #
                  #                  All rights reserved                #
                  #                        -***-                        #
                  #######################################################


                         Program Version 5.0.4 -  RELEASE  -


 With contributions from (in alphabetic order):
   Daniel Aravena         : Magnetic Suceptibility
   Michael Atanasov       : Ab Initio Ligand Field Theory (pilot matlab implementation)
   Alexander A. Auer      : GIAO ZORA, VPT2 properties, NMR spectrum
   Ute Becker             : Parallelization
   Giovanni Bistoni       : ED, misc. LED, open-shell LED, HFLD
   Martin Brehm           : Molecular dynamics
   Dmytro Bykov           : SCF Hessian
   Vijay G. Chilkuri      : MRCI spin determinant printing, contributions to CSF-ICE
   Dipayan Datta          : RHF DLPNO-CCSD density
   Achintya Kumar Dutta   : EOM-CC, STEOM-CC
   Dmitry Ganyushin       : Spin-Orbit,Spin-Spin,Magnetic field MRCI
   Miquel Garcia          : C-PCM and meta-GGA Hessian, CC/C-PCM, Gaussian charge scheme
   Yang Guo               : DLPNO-NEVPT2, F12-NEVPT2, CIM, IAO-localization
   Andreas Hansen         : Spin unrestricted coupled pair/coupled cluster methods
   Benjamin Helmich-Paris : MC-RPA, TRAH-SCF, COSX integrals
   Lee Huntington         : MR-EOM, pCC
   Robert Izsak           : Overlap fitted RIJCOSX, COSX-SCS-MP3, EOM
   Marcus Kettner         : VPT2
   Christian Kollmar      : KDIIS, OOCD, Brueckner-CCSD(T), CCSD density, CASPT2, CASPT2-K
   Simone Kossmann        : Meta GGA functionals, TD-DFT gradient, OOMP2, MP2 Hessian
   Martin Krupicka        : Initial AUTO-CI
   Lucas Lang             : DCDCAS
   Marvin Lechner         : AUTO-CI (C++ implementation), FIC-MRCC
   Dagmar Lenk            : GEPOL surface, SMD
   Dimitrios Liakos       : Extrapolation schemes; Compound Job, initial MDCI parallelization
   Dimitrios Manganas     : Further ROCIS development; embedding schemes
   Dimitrios Pantazis     : SARC Basis sets
   Anastasios Papadopoulos: AUTO-CI, single reference methods and gradients
   Taras Petrenko         : DFT Hessian,TD-DFT gradient, ASA, ECA, R-Raman, ABS, FL, XAS/XES, NRVS
   Peter Pinski           : DLPNO-MP2, DLPNO-MP2 Gradient
   Christoph Reimann      : Effective Core Potentials
   Marius Retegan         : Local ZFS, SOC
   Christoph Riplinger    : Optimizer, TS searches, QM/MM, DLPNO-CCSD(T), (RO)-DLPNO pert. Triples
   Tobias Risthaus        : Range-separated hybrids, TD-DFT gradient, RPA, STAB
   Michael Roemelt        : Original ROCIS implementation
   Masaaki Saitow         : Open-shell DLPNO-CCSD energy and density
   Barbara Sandhoefer     : DKH picture change effects
   Avijit Sen             : IP-ROCIS
   Kantharuban Sivalingam : CASSCF convergence, NEVPT2, FIC-MRCI
   Bernardo de Souza      : ESD, SOC TD-DFT
   Georgi Stoychev        : AutoAux, RI-MP2 NMR, DLPNO-MP2 response
   Willem Van den Heuvel  : Paramagnetic NMR
   Boris Wezisla          : Elementary symmetry handling
   Frank Wennmohs         : Technical directorship


 We gratefully acknowledge several colleagues who have allowed us to
 interface, adapt or use parts of their codes:
   Stefan Grimme, W. Hujo, H. Kruse, P. Pracht,  : VdW corrections, initial TS optimization,
                  C. Bannwarth, S. Ehlert          DFT functionals, gCP, sTDA/sTD-DF
   Ed Valeev, F. Pavosevic, A. Kumar             : LibInt (2-el integral package), F12 methods
   Garnet Chan, S. Sharma, J. Yang, R. Olivares  : DMRG
   Ulf Ekstrom                                   : XCFun DFT Library
   Mihaly Kallay                                 : mrcc  (arbitrary order and MRCC methods)
   Jiri Pittner, Ondrej Demel                    : Mk-CCSD
   Frank Weinhold                                : gennbo (NPA and NBO analysis)
   Christopher J. Cramer and Donald G. Truhlar   : smd solvation model
   Lars Goerigk                                  : TD-DFT with DH, B97 family of functionals
   V. Asgeirsson, H. Jonsson                     : NEB implementation
   FAccTs GmbH                                   : IRC, NEB, NEB-TS, DLPNO-Multilevel, CI-OPT
                                                   MM, QMMM, 2- and 3-layer-ONIOM, Crystal-QMMM,
                                                   LR-CPCM, SF, NACMEs, symmetry and pop. for TD-DFT,
                                                   nearIR, NL-DFT gradient (VV10), updates on ESD,
                                                   ML-optimized integration grids
   S Lehtola, MJT Oliveira, MAL Marques          : LibXC Library
   Liviu Ungur et al                             : ANISO software


 Your calculation uses the libint2 library for the computation of 2-el integrals
 For citations please refer to: http://libint.valeyev.net

 Your ORCA version has been built with support for libXC version: 5.1.0
 For citations please refer to: https://tddft.org/programs/libxc/

 This ORCA versions uses:
   CBLAS   interface :  Fast vector & matrix operations
   LAPACKE interface :  Fast linear algebra routines
   SCALAPACK package :  Parallel linear algebra routines
   Shared memory     :  Shared parallel matrices
   BLAS/LAPACK       :  OpenBLAS 0.3.15  USE64BITINT DYNAMIC_ARCH NO_AFFINITY SkylakeX SINGLE_THREADED
        Core in use  :  SkylakeX
   Copyright (c) 2011-2014, The OpenBLAS Project


Your calculation utilizes the atom-pairwise dispersion correction
with the Becke-Johnson damping scheme (D3BJ)
Cite in your paper:
S.Grimme, S.Ehrlich, L.Goerigk, J Comput Chem, (2011), 32, 1456–1465 
S.Grimme, J.Antony, S.Ehrlich and H.Krieg, J.Chem.Phys., 132, (2010), 154104 
   

================================================================================

----- Orbital basis set information -----
Your calculation utilizes the basis: def2-SVP
   F. Weigend and R. Ahlrichs, Phys. Chem. Chem. Phys. 7, 3297 (2005).

----- AuxJ basis set information -----
Your calculation utilizes the auxiliary basis: def2/J
   F. Weigend, Phys. Chem. Chem. Phys. 8, 1057 (2006).

================================================================================
                                        WARNINGS
                       Please study these warnings very carefully!
================================================================================


WARNING: your system is open-shell and RHF/RKS was chosen
  ===> : WILL SWITCH to UHF/UKS


WARNING: Geometry Optimization
  ===> : Switching off AutoStart
         For restart on a previous wavefunction, please use MOREAD

INFO   : the flag for use of the SHARK integral package has been found!

================================================================================
                                       INPUT FILE
================================================================================
NAME = r0_C5H7O2_opt_orca.inp
|  1> ! Opt PBE0 RIJCOSX D3BJ def2-SVP def2/J 
|  2> %output 
|  3> xyzfile=True 
|  4> end 
|  5> %scf 
|  6> maxiter 250 
|  7> end
|  8> %output
|  9> Print[P_Hirshfeld] = 1
| 10> end
| 11> % maxcore
| 12> 4000
| 13> %pal nprocs 8
| 14> end
| 15> *xyz 0 2
| 16> O   -2.57986311  -0.38897855   0.74954506 
| 17> O   -1.35374563   0.21555431   1.15412523 
| 18> C   -0.62233619   0.48639295  -0.02542794 
| 19> C    0.57952837   1.28684397   0.38142993 
| 20> C    1.74128930   0.59345853   0.06775171 
| 21> C    1.44901078  -0.61578611  -0.55154658 
| 22> C   -0.03321319  -0.77657588  -0.69411834 
| 23> H   -2.58669781  -1.16847652   1.32124203 
| 24> H   -1.28632736   1.04486620  -0.71242235 
| 25> H    0.51140829   2.25453270   0.87886682 
| 26> H    2.75128854   0.95424791   0.27499713 
| 27> H    2.18425223  -1.34250602  -0.90126864 
| 28> H   -0.33534715  -0.86418043  -1.75221100 
| 29> H   -0.41924706  -1.67929305  -0.19096306 
| 30> *
| 31> 
| 32>                          ****END OF INPUT****
================================================================================

                       *****************************
                       * Geometry Optimization Run *
                       *****************************

Geometry optimization settings:
Update method            Update   .... BFGS
Choice of coordinates    CoordSys .... Z-matrix Internals
Initial Hessian          InHess   .... Almoef's Model

Convergence Tolerances:
Energy Change            TolE     ....  5.0000e-06 Eh
Max. Gradient            TolMAXG  ....  3.0000e-04 Eh/bohr
RMS Gradient             TolRMSG  ....  1.0000e-04 Eh/bohr
Max. Displacement        TolMAXD  ....  4.0000e-03 bohr
RMS Displacement         TolRMSD  ....  2.0000e-03 bohr
Strict Convergence                ....  False
------------------------------------------------------------------------------
                        ORCA OPTIMIZATION COORDINATE SETUP
------------------------------------------------------------------------------

The optimization will be done in new redundant internal coordinates
Making redundant internal coordinates   ...  (new redundants) done
Evaluating the initial hessian          ...  (Almloef) done
Evaluating the coordinates              ...  done
Calculating the B-matrix                .... done
Calculating the G-matrix                .... done
Diagonalizing the G-matrix              .... done
The first mode is                       ....   34
The number of degrees of freedom        ....   36

    -----------------------------------------------------------------
                    Redundant Internal Coordinates


    -----------------------------------------------------------------
         Definition                    Initial Value    Approx d2E/dq
    -----------------------------------------------------------------
      1. B(O   1,O   0)                  1.4257         0.439661   
      2. B(C   2,O   1)                  1.4141         0.512197   
      3. B(C   3,C   2)                  1.5002         0.416726   
      4. B(C   4,C   3)                  1.3888         0.627474   
      5. B(C   5,C   4)                  1.3897         0.625515   
      6. B(C   6,C   5)                  1.4977         0.420607   
      7. B(C   6,C   2)                  1.5457         0.352590   
      8. B(H   7,O   0)                  0.9667         0.507322   
      9. B(H   8,C   2)                  1.1067         0.338698   
     10. B(H   9,C   3)                  1.0902         0.359854   
     11. B(H  10,C   4)                  1.0923         0.357011   
     12. B(H  11,C   5)                  1.0913         0.358341   
     13. B(H  12,C   6)                  1.1039         0.342217   
     14. B(H  13,C   6)                  1.1032         0.343034   
     15. A(O   1,O   0,H   7)          100.3800         0.345461   
     16. A(O   0,O   1,C   2)          106.8180         0.387197   
     17. A(C   3,C   2,H   8)          112.3186         0.326891   
     18. A(O   1,C   2,H   8)          107.7061         0.336211   
     19. A(C   3,C   2,C   6)          104.3554         0.366568   
     20. A(O   1,C   2,C   6)          113.6714         0.377442   
     21. A(O   1,C   2,C   3)          106.8779         0.388561   
     22. A(C   6,C   2,H   8)          111.8666         0.318061   
     23. A(C   4,C   3,H   9)          126.7613         0.353585   
     24. A(C   2,C   3,H   9)          123.1807         0.330176   
     25. A(C   2,C   3,C   4)          110.0294         0.405248   
     26. A(C   3,C   4,H  10)          124.4503         0.353110   
     27. A(C   3,C   4,C   5)          111.0480         0.435697   
     28. A(C   5,C   4,H  10)          124.5007         0.352923   
     29. A(C   4,C   5,C   6)          110.1196         0.405688   
     30. A(C   6,C   5,H  11)          124.3846         0.330452   
     31. A(C   4,C   5,H  11)          125.4893         0.353146   
     32. A(C   5,C   6,H  13)          112.9997         0.328078   
     33. A(C   2,C   6,H  13)          109.7494         0.318721   
     34. A(C   5,C   6,H  12)          111.7550         0.327949   
     35. A(C   2,C   6,H  12)          112.0362         0.318597   
     36. A(H  12,C   6,H  13)          106.0488         0.286345   
     37. A(C   2,C   6,C   5)          104.3761         0.367151   
     38. D(C   2,O   1,O   0,H   7)    129.5286         0.014326   
     39. D(C   6,C   2,O   1,O   0)    -72.9115         0.020775   
     40. D(C   3,C   2,O   1,O   0)    172.5123         0.020775   
     41. D(H   8,C   2,O   1,O   0)     51.6185         0.020775   
     42. D(C   4,C   3,C   2,C   6)     -2.4295         0.012847   
     43. D(C   4,C   3,C   2,O   1)    118.2833         0.012847   
     44. D(H   9,C   3,C   2,C   6)    179.3999         0.012847   
     45. D(H   9,C   3,C   2,O   1)    -59.8873         0.012847   
     46. D(H   9,C   3,C   2,H   8)     58.0244         0.012847   
     47. D(C   4,C   3,C   2,H   8)   -123.8050         0.012847   
     48. D(C   5,C   4,C   3,C   2)      1.2520         0.027285   
     49. D(C   5,C   4,C   3,H   9)    179.3407         0.027285   
     50. D(H  10,C   4,C   3,H   9)     -1.0162         0.027285   
     51. D(H  10,C   4,C   3,C   2)   -179.1049         0.027285   
     52. D(C   6,C   5,C   4,C   3)      0.5542         0.027104   
     53. D(H  11,C   5,C   4,H  10)      0.0158         0.027104   
     54. D(H  11,C   5,C   4,C   3)    179.6587         0.027104   
     55. D(C   6,C   5,C   4,H  10)   -179.0887         0.027104   
     56. D(H  12,C   6,C   5,C   4)    119.2623         0.013080   
     57. D(C   2,C   6,C   5,H  11)    178.8601         0.013080   
     58. D(C   2,C   6,C   5,C   4)     -2.0234         0.013080   
     59. D(H  13,C   6,C   2,C   3)    123.9673         0.010005   
     60. D(H  13,C   6,C   2,O   1)      7.9008         0.010005   
     61. D(H  12,C   6,C   2,H   8)      3.1712         0.010005   
     62. D(H  12,C   6,C   2,C   3)   -118.5034         0.010005   
     63. D(H  13,C   6,C   2,H   8)   -114.3581         0.010005   
     64. D(H  12,C   6,C   2,O   1)    125.4301         0.010005   
     65. D(C   5,C   6,C   2,H   8)    124.2703         0.010005   
     66. D(C   5,C   6,C   2,C   3)      2.5957         0.010005   
     67. D(H  12,C   6,C   5,H  11)    -59.8542         0.013080   
     68. D(C   5,C   6,C   2,O   1)   -113.4709         0.010005   
     69. D(H  13,C   6,C   5,H  11)     59.6672         0.013080   
     70. D(H  13,C   6,C   5,C   4)   -121.2163         0.013080   
    -----------------------------------------------------------------

Number of atoms                         .... 14
Number of degrees of freedom            .... 70

         *************************************************************
         *                GEOMETRY OPTIMIZATION CYCLE   1            *
         *************************************************************
---------------------------------
CARTESIAN COORDINATES (ANGSTROEM)
---------------------------------
  O     -2.579863   -0.388979    0.749545
  O     -1.353746    0.215554    1.154125
  C     -0.622336    0.486393   -0.025428
  C      0.579528    1.286844    0.381430
  C      1.741289    0.593459    0.067752
  C      1.449011   -0.615786   -0.551547
  C     -0.033213   -0.776576   -0.694118
  H     -2.586698   -1.168477    1.321242
  H     -1.286327    1.044866   -0.712422
  H      0.511408    2.254533    0.878867
  H      2.751289    0.954248    0.274997
  H      2.184252   -1.342506   -0.901269
  H     -0.335347   -0.864180   -1.752211
  H     -0.419247   -1.679293   -0.190963

----------------------------
CARTESIAN COORDINATES (A.U.)
----------------------------
  NO LB      ZA    FRAG     MASS         X           Y           Z
   0 O     8.0000    0    15.999   -4.875235   -0.735063    1.416435
   1 O     8.0000    0    15.999   -2.558208    0.407339    2.180981
   2 C     6.0000    0    12.011   -1.176045    0.919149   -0.048052
   3 C     6.0000    0    12.011    1.095150    2.431783    0.720798
   4 C     6.0000    0    12.011    3.290560    1.121474    0.128032
   5 C     6.0000    0    12.011    2.738234   -1.163667   -1.042272
   6 C     6.0000    0    12.011   -0.062764   -1.467516   -1.311694
   7 H     1.0000    0     1.008   -4.888150   -2.208101    2.496786
   8 H     1.0000    0     1.008   -2.430806    1.974511   -1.346283
   9 H     1.0000    0     1.008    0.966422    4.260449    1.660818
  10 H     1.0000    0     1.008    5.199182    1.803267    0.519669
  11 H     1.0000    0     1.008    4.127639   -2.536969   -1.703151
  12 H     1.0000    0     1.008   -0.633714   -1.633064   -3.311199
  13 H     1.0000    0     1.008   -0.792262   -3.173404   -0.360868

--------------------------------
INTERNAL COORDINATES (ANGSTROEM)
--------------------------------
 O      0   0   0     0.000000000000     0.00000000     0.00000000
 O      1   0   0     1.425660958131     0.00000000     0.00000000
 C      2   1   0     1.414093002138   106.81804678     0.00000000
 C      3   2   1     1.500244507533   106.87790685   172.51229490
 C      4   3   2     1.388836150372   110.02940366   118.28325603
 C      5   4   3     1.389686908846   111.04796299     1.25198795
 C      6   5   4     1.497720919974   110.11964753     0.55421686
 H      1   2   3     0.966696034887   100.38000818   129.52860457
 H      3   2   1     1.106678799008   107.70605727    51.61850961
 H      4   3   2     1.090185893782   123.18065705   300.11269785
 H      5   4   3     1.092345231890   124.45028211   180.89508960
 H      6   5   4     1.091332825787   125.48926686   179.65873460
 H      7   6   5     1.103865736452   111.75500011   119.26227714
 H      7   6   5     1.103216059343   112.99968907   238.78373792

---------------------------
INTERNAL COORDINATES (A.U.)
---------------------------
 O      0   0   0     0.000000000000     0.00000000     0.00000000
 O      1   0   0     2.694108770691     0.00000000     0.00000000
 C      2   1   0     2.672248501935   106.81804678     0.00000000
 C      3   2   1     2.835051253158   106.87790685   172.51229490
 C      4   3   2     2.624519969093   110.02940366   118.28325603
 C      5   4   3     2.626127669615   111.04796299     1.25198795
 C      6   5   4     2.830282363796   110.11964753     0.55421686
 H      1   2   3     1.826790760683   100.38000818   129.52860457
 H      3   2   1     2.091319848343   107.70605727    51.61850961
 H      4   3   2     2.060152774312   123.18065705   300.11269785
 H      5   4   3     2.064233331966   124.45028211   180.89508960
 H      6   5   4     2.062320161695   125.48926686   179.65873460
 H      7   6   5     2.086003930513   111.75500011   119.26227714
 H      7   6   5     2.084776218702   112.99968907   238.78373792

---------------------
BASIS SET INFORMATION
---------------------
There are 3 groups of distinct atoms

 Group   1 Type O   : 7s4p1d contracted to 3s2p1d pattern {511/31/1}
 Group   2 Type C   : 7s4p1d contracted to 3s2p1d pattern {511/31/1}
 Group   3 Type H   : 4s1p contracted to 2s1p pattern {31/1}

Atom   0O    basis set group =>   1
Atom   1O    basis set group =>   1
Atom   2C    basis set group =>   2
Atom   3C    basis set group =>   2
Atom   4C    basis set group =>   2
Atom   5C    basis set group =>   2
Atom   6C    basis set group =>   2
Atom   7H    basis set group =>   3
Atom   8H    basis set group =>   3
Atom   9H    basis set group =>   3
Atom  10H    basis set group =>   3
Atom  11H    basis set group =>   3
Atom  12H    basis set group =>   3
Atom  13H    basis set group =>   3
---------------------------------
AUXILIARY/J BASIS SET INFORMATION
---------------------------------
There are 3 groups of distinct atoms

 Group   1 Type O   : 12s5p4d2f1g contracted to 6s4p3d1f1g pattern {711111/2111/211/2/1}
 Group   2 Type C   : 12s5p4d2f1g contracted to 6s4p3d1f1g pattern {711111/2111/211/2/1}
 Group   3 Type H   : 5s2p1d contracted to 3s1p1d pattern {311/2/1}

Atom   0O    basis set group =>   1
Atom   1O    basis set group =>   1
Atom   2C    basis set group =>   2
Atom   3C    basis set group =>   2
Atom   4C    basis set group =>   2
Atom   5C    basis set group =>   2
Atom   6C    basis set group =>   2
Atom   7H    basis set group =>   3
Atom   8H    basis set group =>   3
Atom   9H    basis set group =>   3
Atom  10H    basis set group =>   3
Atom  11H    basis set group =>   3
Atom  12H    basis set group =>   3
Atom  13H    basis set group =>   3


           ************************************************************
           *        Program running with 8 parallel MPI-processes     *
           *              working on a common directory               *
           ************************************************************
------------------------------------------------------------------------------
                           ORCA GTO INTEGRAL CALCULATION
                           -- RI-GTO INTEGRALS CHOSEN --
------------------------------------------------------------------------------
------------------------------------------------------------------------------
                   ___                                                        
                  /   \      - P O W E R E D   B Y -                         
                 /     \                                                     
                 |  |  |   _    _      __       _____    __    __             
                 |  |  |  | |  | |    /  \     |  _  \  |  |  /  |          
                  \  \/   | |  | |   /    \    | | | |  |  | /  /          
                 / \  \   | |__| |  /  /\  \   | |_| |  |  |/  /          
                |  |  |   |  __  | /  /__\  \  |    /   |      \           
                |  |  |   | |  | | |   __   |  |    \   |  |\   \          
                \     /   | |  | | |  |  |  |  | |\  \  |  | \   \       
                 \___/    |_|  |_| |__|  |__|  |_| \__\ |__|  \__/        
                                                                              
                      - O R C A' S   B I G   F R I E N D -                    
                                      &                                       
                       - I N T E G R A L  F E E D E R -                       
                                                                              
 v1 FN, 2020, v2 2021                                                         
------------------------------------------------------------------------------


Reading SHARK input file r0_C5H7O2_opt_orca.SHARKINP.tmp ... ok
----------------------
SHARK INTEGRAL PACKAGE
----------------------

Number of atoms                             ...     14
Number of basis functions                   ...    133
Number of shells                            ...     63
Maximum angular momentum                    ...      2
Integral batch strategy                     ... SHARK/LIBINT Hybrid
RI-J (if used) integral strategy            ... SPLIT-RIJ (Revised 2003 algorithm where possible)
Printlevel                                  ...      1
Contraction scheme used                     ... SEGMENTED contraction
Coulomb Range Separation                    ... NOT USED
Exchange Range Separation                   ... NOT USED
Finite Nucleus Model                        ... NOT USED
Auxiliary Coulomb fitting basis             ... AVAILABLE
   # of basis functions in Aux-J            ...    420
   # of shells in Aux-J                     ...    140
   Maximum angular momentum in Aux-J        ...      4
Auxiliary J/K fitting basis                 ... NOT available
Auxiliary Correlation fitting basis         ... NOT available
Auxiliary 'external' fitting basis          ... NOT available
Integral threshold                          ...     2.500000e-11
Primitive cut-off                           ...     2.500000e-12
Primitive pair pre-selection threshold      ...     2.500000e-12

Calculating pre-screening integrals         ... done (  0.0 sec) Dimension = 63
Organizing shell pair data                  ... done (  0.0 sec)
Shell pair information
Total number of shell pairs                 ...      2016
Shell pairs after pre-screening             ...      1940
Total number of primitive shell pairs       ...      7252
Primitive shell pairs kept                  ...      5311
          la=0 lb=0:    602 shell pairs
          la=1 lb=0:    709 shell pairs
          la=1 lb=1:    225 shell pairs
          la=2 lb=0:    235 shell pairs
          la=2 lb=1:    142 shell pairs
          la=2 lb=2:     27 shell pairs

Calculating one electron integrals          ... done (  0.0 sec)
Calculating RI/J V-Matrix + Cholesky decomp.... done (  0.0 sec)
Calculating Nuclear repulsion               ... done (  0.0 sec) ENN=    298.069450617034 Eh

SHARK setup successfully completed in   0.1 seconds

Maximum memory used throughout the entire GTOINT-calculation: 10.7 MB


           ************************************************************
           *        Program running with 8 parallel MPI-processes     *
           *              working on a common directory               *
           ************************************************************
-------------------------------------------------------------------------------
                                 ORCA SCF
-------------------------------------------------------------------------------

------------
SCF SETTINGS
------------
Hamiltonian:
 Density Functional     Method          .... DFT(GTOs)
 Exchange Functional    Exchange        .... PBE
   PBE kappa parameter   XKappa         ....  0.804000
   PBE mue parameter    XMuePBE         ....  0.219520
 Correlation Functional Correlation     .... PBE
   PBE beta parameter  CBetaPBE         ....  0.066725
 LDA part of GGA corr.  LDAOpt          .... PW91-LDA
 Gradients option       PostSCFGGA      .... off
 Hybrid DFT is turned on
   Fraction HF Exchange ScalHFX         ....  0.250000
   Scaling of DF-GGA-X  ScalDFX         ....  0.750000
   Scaling of DF-GGA-C  ScalDFC         ....  1.000000
   Scaling of DF-LDA-C  ScalLDAC        ....  1.000000
   Perturbative correction              ....  0.000000
   Density functional embedding theory  .... OFF
   NL short-range parameter             ....  6.900000
 RI-approximation to the Coulomb term is turned on
   Number of AuxJ basis functions       .... 420
   RIJ-COSX (HFX calculated with COS-X)).... on


General Settings:
 Integral files         IntName         .... r0_C5H7O2_opt_orca
 Hartree-Fock type      HFTyp           .... UHF
 Total Charge           Charge          ....    0
 Multiplicity           Mult            ....    2
 Number of Electrons    NEL             ....   53
 Basis Dimension        Dim             ....  133
 Nuclear Repulsion      ENuc            ....    298.0694506170 Eh

Convergence Acceleration:
 DIIS                   CNVDIIS         .... on
   Start iteration      DIISMaxIt       ....    12
   Startup error        DIISStart       ....  0.200000
   # of expansion vecs  DIISMaxEq       ....     5
   Bias factor          DIISBfac        ....   1.050
   Max. coefficient     DIISMaxC        ....  10.000
 Trust-Rad. Augm. Hess. CNVTRAH         .... auto
   Auto Start mean grad. ratio tolernc. ....  1.125000
   Auto Start start iteration           ....    20
   Auto Start num. interpolation iter.  ....    10
   Max. Number of Micro iterations      ....    16
   Max. Number of Macro iterations      .... Maxiter - #DIIS iter
   Number of Davidson start vectors     ....     2
   Converg. threshold I  (grad. norm)   ....   1.000e-05
   Converg. threshold II (energy diff.) ....   1.000e-08
   Grad. Scal. Fac. for Micro threshold ....   0.100
   Minimum threshold for Micro iter.    ....   0.010
   NR start threshold (gradient norm)   ....   0.001
   Initial trust radius                 ....   0.400
   Minimum AH scaling param. (alpha)    ....   1.000
   Maximum AH scaling param. (alpha)    .... 1000.000
   Orbital update algorithm             .... Taylor
   White noise on init. David. guess    .... on
   Maximum white noise                  ....   0.010
   Quad. conv. algorithm                .... NR
 SOSCF                  CNVSOSCF        .... off
 Level Shifting         CNVShift        .... on
   Level shift para.    LevelShift      ....    0.2500
   Turn off err/grad.   ShiftErr        ....    0.0010
 Zerner damping         CNVZerner       .... off
 Static damping         CNVDamp         .... on
   Fraction old density DampFac         ....    0.7000
   Max. Damping (<1)    DampMax         ....    0.9800
   Min. Damping (>=0)   DampMin         ....    0.0000
   Turn off err/grad.   DampErr         ....    0.1000
 Fernandez-Rico         CNVRico         .... off

SCF Procedure:
 Maximum # iterations   MaxIter         ....   250
 SCF integral mode      SCFMode         .... Direct
   Integral package                     .... SHARK and LIBINT hybrid scheme
 Reset frequency        DirectResetFreq ....    20
 Integral Threshold     Thresh          ....  2.500e-11 Eh
 Primitive CutOff       TCut            ....  2.500e-12 Eh

Convergence Tolerance:
 Convergence Check Mode ConvCheckMode   .... Total+1el-Energy
 Convergence forced     ConvForced      .... 0
 Energy Change          TolE            ....  1.000e-08 Eh
 1-El. energy change                    ....  1.000e-05 Eh
 DIIS Error             TolErr          ....  5.000e-07


Diagonalization of the overlap matrix:
Smallest eigenvalue                        ... 9.476e-04
Time for diagonalization                   ...    0.003 sec
Threshold for overlap eigenvalues          ... 1.000e-08
Number of eigenvalues below threshold      ... 0
Time for construction of square roots      ...    0.001 sec
Total time needed                          ...    0.004 sec

Time for model grid setup =    0.042 sec

------------------------------
INITIAL GUESS: MODEL POTENTIAL
------------------------------
Loading Hartree-Fock densities                     ... done
Calculating cut-offs                               ... done
Initializing the effective Hamiltonian             ... done
Setting up the integral package (SHARK)            ... done
Starting the Coulomb interaction                   ... done (   0.0 sec)
Reading the grid                                   ... done
Mapping shells                                     ... done
Starting the XC term evaluation                    ... done (   0.0 sec)
  promolecular density results
     # of electrons  =     52.998434247
     EX              =    -43.881933168
     EC              =     -1.759367227
     EX+EC           =    -45.641300395
Transforming the Hamiltonian                       ... done (   0.0 sec)
Diagonalizing the Hamiltonian                      ... done (   0.0 sec)
Back transforming the eigenvectors                 ... done (   0.0 sec)
Now organizing SCF variables                       ... done
                      ------------------
                      INITIAL GUESS DONE (   0.1 sec)
                      ------------------
-------------------
DFT GRID GENERATION
-------------------

General Integration Accuracy     IntAcc      ... 4.388
Radial Grid Type                 RadialGrid  ... OptM3 with GC (2021)
Angular Grid (max. ang.)         AngularGrid ... 4 (Lebedev-302)
Angular grid pruning method      GridPruning ... 4 (adaptive)
Weight generation scheme         WeightScheme... Becke
Basis function cutoff            BFCut       ... 1.0000e-11
Integration weight cutoff        WCut        ... 1.0000e-14
Angular grids for H and He will be reduced by one unit
Partially contracted basis set               ... off
Rotationally invariant grid construction     ... off

Total number of grid points                  ...    64877
Total number of batches                      ...     1020
Average number of points per batch           ...       63
Average number of grid points per atom       ...     4634
Time for grid setup =    0.244 sec

--------------------
COSX GRID GENERATION
--------------------

GRIDX 1
-------
General Integration Accuracy     IntAcc      ... 3.816
Radial Grid Type                 RadialGrid  ... OptM3 with GC (2021)
Angular Grid (max. ang.)         AngularGrid ... 1 (Lebedev-50)
Angular grid pruning method      GridPruning ... 4 (adaptive)
Weight generation scheme         WeightScheme... Becke
Basis function cutoff            BFCut       ... 1.0000e-11
Integration weight cutoff        WCut        ... 1.0000e-14
Angular grids for H and He will be reduced by one unit
Partially contracted basis set               ... on
Rotationally invariant grid construction     ... off

Total number of grid points                  ...     8288
Total number of batches                      ...      135
Average number of points per batch           ...       61
Average number of grid points per atom       ...      592
UseSFitting                                  ... on

GRIDX 2
-------
General Integration Accuracy     IntAcc      ... 4.020
Radial Grid Type                 RadialGrid  ... OptM3 with GC (2021)
Angular Grid (max. ang.)         AngularGrid ... 2 (Lebedev-110)
Angular grid pruning method      GridPruning ... 4 (adaptive)
Weight generation scheme         WeightScheme... Becke
Basis function cutoff            BFCut       ... 1.0000e-11
Integration weight cutoff        WCut        ... 1.0000e-14
Angular grids for H and He will be reduced by one unit
Partially contracted basis set               ... on
Rotationally invariant grid construction     ... off

Total number of grid points                  ...    18042
Total number of batches                      ...      288
Average number of points per batch           ...       62
Average number of grid points per atom       ...     1289
UseSFitting                                  ... on

GRIDX 3
-------
General Integration Accuracy     IntAcc      ... 4.338
Radial Grid Type                 RadialGrid  ... OptM3 with GC (2021)
Angular Grid (max. ang.)         AngularGrid ... 3 (Lebedev-194)
Angular grid pruning method      GridPruning ... 4 (adaptive)
Weight generation scheme         WeightScheme... Becke
Basis function cutoff            BFCut       ... 1.0000e-11
Integration weight cutoff        WCut        ... 1.0000e-14
Angular grids for H and He will be reduced by one unit
Partially contracted basis set               ... on
Rotationally invariant grid construction     ... off

Total number of grid points                  ...    39644
Total number of batches                      ...      627
Average number of points per batch           ...       63
Average number of grid points per atom       ...     2832
UseSFitting                                  ... on

Time for X-Grid setup             =    0.179 sec

--------------
SCF ITERATIONS
--------------
ITER       Energy         Delta-E        Max-DP      RMS-DP      [F,P]     Damp
               ***  Starting incremental Fock matrix formation  ***
  0   -344.2618242259   0.000000000000 0.03120195  0.00100264  0.0674942 0.7000
  1   -344.3152214631  -0.053397237202 0.01992121  0.00071901  0.0354018 0.7000
                               ***Turning on DIIS***
  2   -344.3398611039  -0.024639640820 0.03110150  0.00133551  0.0167610 0.0000
  3   -344.3778180627  -0.037956958821 0.01465730  0.00050983  0.0179590 0.0000
  4   -344.3862275699  -0.008409507229 0.00487908  0.00013794  0.0037177 0.0000
  5   -344.3866795065  -0.000451936551 0.00358097  0.00008543  0.0027608 0.0000
  6   -344.3868489820  -0.000169475490 0.00289647  0.00006162  0.0019911 0.0000
  7   -344.3869575880  -0.000108605972 0.00239058  0.00004641  0.0010469 0.0000
  8   -344.3869985990  -0.000041011008 0.00184350  0.00003702  0.0005814 0.0000
               *** Restarting incremental Fock matrix formation ***
                                   *** Resetting DIIS ***
  9   -344.3869454110   0.000053187993 0.00054854  0.00001337  0.0002120 0.0000
 10   -344.3869454557  -0.000000044694 0.00027249  0.00000663  0.0002375 0.0000
 11   -344.3869463765  -0.000000920828 0.00008251  0.00000221  0.0000596 0.0000
 12   -344.3869464430  -0.000000066552 0.00008570  0.00000159  0.0000396 0.0000
 13   -344.3869464796  -0.000000036524 0.00003265  0.00000057  0.0000106 0.0000
 14   -344.3869464853  -0.000000005751 0.00000580  0.00000017  0.0000095 0.0000
                 **** Energy Check signals convergence ****

               *****************************************************
               *                     SUCCESS                       *
               *           SCF CONVERGED AFTER  15 CYCLES          *
               *****************************************************

Old exchange energy                            =    -11.183589138 Eh
New exchange energy                            =    -11.183530750 Eh
Exchange energy change after final integration =      0.000058388 Eh
Total energy after final integration           =   -344.386888093 Eh
Final COS-X integration done in                =     0.654 sec

----------------
TOTAL SCF ENERGY
----------------

Total Energy       :         -344.38688809 Eh           -9371.24365 eV

Components:
Nuclear Repulsion  :          298.06945062 Eh            8110.88210 eV
Electronic Energy  :         -642.45633871 Eh          -17482.12575 eV
One Electron Energy:        -1059.27812912 Eh          -28824.42330 eV
Two Electron Energy:          416.82179041 Eh           11342.29755 eV
Max COSX asymmetry :            0.00000051 Eh               0.00001 eV

Virial components:
Potential Energy   :         -685.92893802 Eh          -18665.07532 eV
Kinetic Energy     :          341.54204993 Eh            9293.83167 eV
Virial Ratio       :            2.00832939


DFT components:
N(Alpha)           :       27.000013040654 electrons
N(Beta)            :       26.000007467593 electrons
N(Total)           :       53.000020508247 electrons
E(X)               :      -33.475834795583 Eh       
E(C)               :       -1.770942217020 Eh       
E(XC)              :      -35.246777012603 Eh       
DFET-embed. en.    :        0.000000000000 Eh       

---------------
SCF CONVERGENCE
---------------

  Last Energy change         ...    4.2822e-09  Tolerance :   1.0000e-08
  Last MAX-Density change    ...    0.0000e+00  Tolerance :   1.0000e-07
  Last RMS-Density change    ...    0.0000e+00  Tolerance :   5.0000e-09
  Last DIIS Error            ...    3.7686e-06  Tolerance :   5.0000e-07

             **** THE GBW FILE WAS UPDATED (r0_C5H7O2_opt_orca.gbw) ****
             **** DENSITY r0_C5H7O2_opt_orca.scfp WAS UPDATED ****
             **** ENERGY FILE WAS UPDATED (r0_C5H7O2_opt_orca.en.tmp) ****
----------------------
UHF SPIN CONTAMINATION
----------------------

Warning: in a DFT calculation there is little theoretical justification to 
         calculate <S**2> as in Hartree-Fock theory. We will do it anyways
         but you should keep in mind that the values have only limited relevance

Expectation value of <S**2>     :     0.786925
Ideal value S*(S+1) for S=0.5   :     0.750000
Deviation                       :     0.036925

             **** THE GBW FILE WAS UPDATED (r0_C5H7O2_opt_orca.gbw) ****
             **** DENSITY r0_C5H7O2_opt_orca.scfp WAS UPDATED ****
----------------
ORBITAL ENERGIES
----------------
                 SPIN UP ORBITALS
  NO   OCC          E(Eh)            E(eV) 
   0   1.0000     -19.257583      -524.0255 
   1   1.0000     -19.254466      -523.9407 
   2   1.0000     -10.285339      -279.8783 
   3   1.0000     -10.247197      -278.8404 
   4   1.0000     -10.243437      -278.7381 
   5   1.0000     -10.240188      -278.6497 
   6   1.0000     -10.237425      -278.5745 
   7   1.0000      -1.144487       -31.1431 
   8   1.0000      -0.933490       -25.4016 
   9   1.0000      -0.861777       -23.4501 
  10   1.0000      -0.733273       -19.9534 
  11   1.0000      -0.709695       -19.3118 
  12   1.0000      -0.587422       -15.9846 
  13   1.0000      -0.563107       -15.3229 
  14   1.0000      -0.547415       -14.8959 
  15   1.0000      -0.532596       -14.4927 
  16   1.0000      -0.483707       -13.1623 
  17   1.0000      -0.453192       -12.3320 
  18   1.0000      -0.421494       -11.4694 
  19   1.0000      -0.404013       -10.9938 
  20   1.0000      -0.394089       -10.7237 
  21   1.0000      -0.387369       -10.5408 
  22   1.0000      -0.361929        -9.8486 
  23   1.0000      -0.333993        -9.0884 
  24   1.0000      -0.320868        -8.7313 
  25   1.0000      -0.261474        -7.1151 
  26   1.0000      -0.200440        -5.4543 
  27   0.0000       0.024825         0.6755 
  28   0.0000       0.061501         1.6735 
  29   0.0000       0.080488         2.1902 
  30   0.0000       0.096643         2.6298 
  31   0.0000       0.113737         3.0949 
  32   0.0000       0.122998         3.3469 
  33   0.0000       0.135414         3.6848 
  34   0.0000       0.145310         3.9541 
  35   0.0000       0.160980         4.3805 
  36   0.0000       0.195008         5.3064 
  37   0.0000       0.207486         5.6460 
  38   0.0000       0.250416         6.8142 
  39   0.0000       0.297160         8.0861 
  40   0.0000       0.351042         9.5523 
  41   0.0000       0.388814        10.5802 
  42   0.0000       0.411023        11.1845 
  43   0.0000       0.449922        12.2430 
  44   0.0000       0.468361        12.7447 
  45   0.0000       0.491209        13.3665 
  46   0.0000       0.503508        13.7012 
  47   0.0000       0.534419        14.5423 
  48   0.0000       0.549997        14.9662 
  49   0.0000       0.563826        15.3425 
  50   0.0000       0.596730        16.2379 
  51   0.0000       0.607648        16.5349 
  52   0.0000       0.620300        16.8792 
  53   0.0000       0.632659        17.2155 
  54   0.0000       0.655469        17.8362 
  55   0.0000       0.659234        17.9387 
  56   0.0000       0.669398        18.2153 
  57   0.0000       0.681807        18.5529 
  58   0.0000       0.703287        19.1374 
  59   0.0000       0.710267        19.3274 
  60   0.0000       0.727517        19.7967 
  61   0.0000       0.747279        20.3345 
  62   0.0000       0.777041        21.1444 
  63   0.0000       0.795272        21.6404 
  64   0.0000       0.797847        21.7105 
  65   0.0000       0.830665        22.6035 
  66   0.0000       0.921167        25.0662 
  67   0.0000       0.966492        26.2996 
  68   0.0000       1.023795        27.8589 
  69   0.0000       1.048630        28.5347 
  70   0.0000       1.067189        29.0397 
  71   0.0000       1.093255        29.7490 
  72   0.0000       1.159641        31.5554 
  73   0.0000       1.189044        32.3555 
  74   0.0000       1.205652        32.8074 
  75   0.0000       1.244482        33.8641 
  76   0.0000       1.275639        34.7119 
  77   0.0000       1.292078        35.1592 
  78   0.0000       1.371680        37.3253 
  79   0.0000       1.452341        39.5202 
  80   0.0000       1.475532        40.1513 
  81   0.0000       1.542239        41.9664 
  82   0.0000       1.547666        42.1141 
  83   0.0000       1.577815        42.9345 
  84   0.0000       1.622525        44.1512 
  85   0.0000       1.659171        45.1483 
  86   0.0000       1.668440        45.4006 
  87   0.0000       1.711203        46.5642 
  88   0.0000       1.719488        46.7896 
  89   0.0000       1.757250        47.8172 
  90   0.0000       1.778666        48.4000 
  91   0.0000       1.801015        49.0081 
  92   0.0000       1.831572        49.8396 
  93   0.0000       1.858407        50.5698 
  94   0.0000       1.877905        51.1004 
  95   0.0000       1.888005        51.3752 
  96   0.0000       1.928905        52.4882 
  97   0.0000       1.941220        52.8233 
  98   0.0000       1.972327        53.6697 
  99   0.0000       2.030632        55.2563 
 100   0.0000       2.047380        55.7120 
 101   0.0000       2.110362        57.4259 
 102   0.0000       2.120749        57.7085 
 103   0.0000       2.143203        58.3195 
 104   0.0000       2.195948        59.7548 
 105   0.0000       2.220527        60.4236 
 106   0.0000       2.262174        61.5569 
 107   0.0000       2.281204        62.0747 
 108   0.0000       2.334159        63.5157 
 109   0.0000       2.374901        64.6243 
 110   0.0000       2.420888        65.8757 
 111   0.0000       2.459800        66.9346 
 112   0.0000       2.485138        67.6240 
 113   0.0000       2.506240        68.1983 
 114   0.0000       2.530551        68.8598 
 115   0.0000       2.630992        71.5929 
 116   0.0000       2.659123        72.3584 
 117   0.0000       2.663039        72.4650 
 118   0.0000       2.706760        73.6547 
 119   0.0000       2.719464        74.0004 
 120   0.0000       2.818052        76.6831 
 121   0.0000       2.853404        77.6451 
 122   0.0000       2.938232        79.9533 
 123   0.0000       2.971197        80.8504 
 124   0.0000       3.030062        82.4522 
 125   0.0000       3.043926        82.8294 
 126   0.0000       3.114047        84.7375 
 127   0.0000       3.132410        85.2372 
 128   0.0000       3.224009        87.7298 
 129   0.0000       3.349631        91.1481 
 130   0.0000       3.409973        92.7901 
 131   0.0000       3.601305        97.9965 
 132   0.0000       3.907743       106.3351 

                 SPIN DOWN ORBITALS
  NO   OCC          E(Eh)            E(eV) 
   0   1.0000     -19.256722      -524.0020 
   1   1.0000     -19.254246      -523.9347 
   2   1.0000     -10.286017      -279.8967 
   3   1.0000     -10.244370      -278.7635 
   4   1.0000     -10.238083      -278.5924 
   5   1.0000     -10.236883      -278.5598 
   6   1.0000     -10.233337      -278.4633 
   7   1.0000      -1.143194       -31.1079 
   8   1.0000      -0.930372       -25.3167 
   9   1.0000      -0.852814       -23.2062 
  10   1.0000      -0.727063       -19.7844 
  11   1.0000      -0.695739       -18.9320 
  12   1.0000      -0.578679       -15.7466 
  13   1.0000      -0.559185       -15.2162 
  14   1.0000      -0.541625       -14.7384 
  15   1.0000      -0.528518       -14.3817 
  16   1.0000      -0.480045       -13.0627 
  17   1.0000      -0.450046       -12.2464 
  18   1.0000      -0.414118       -11.2687 
  19   1.0000      -0.398690       -10.8489 
  20   1.0000      -0.390189       -10.6176 
  21   1.0000      -0.382259       -10.4018 
  22   1.0000      -0.358641        -9.7591 
  23   1.0000      -0.325585        -8.8596 
  24   1.0000      -0.300548        -8.1783 
  25   1.0000      -0.260633        -7.0922 
  26   0.0000      -0.062821        -1.7094 
  27   0.0000       0.038174         1.0388 
  28   0.0000       0.066959         1.8220 
  29   0.0000       0.088266         2.4018 
  30   0.0000       0.100419         2.7325 
  31   0.0000       0.117195         3.1890 
  32   0.0000       0.126039         3.4297 
  33   0.0000       0.140846         3.8326 
  34   0.0000       0.148972         4.0537 
  35   0.0000       0.165629         4.5070 
  36   0.0000       0.199149         5.4191 
  37   0.0000       0.211275         5.7491 
  38   0.0000       0.255734         6.9589 
  39   0.0000       0.304420         8.2837 
  40   0.0000       0.358626         9.7587 
  41   0.0000       0.392971        10.6933 
  42   0.0000       0.414201        11.2710 
  43   0.0000       0.469103        12.7649 
  44   0.0000       0.476891        12.9769 
  45   0.0000       0.500493        13.6191 
  46   0.0000       0.511189        13.9102 
  47   0.0000       0.544522        14.8172 
  48   0.0000       0.559814        15.2333 
  49   0.0000       0.596712        16.2374 
  50   0.0000       0.599489        16.3129 
  51   0.0000       0.611741        16.6463 
  52   0.0000       0.629748        17.1363 
  53   0.0000       0.642053        17.4712 
  54   0.0000       0.661907        18.0114 
  55   0.0000       0.668907        18.2019 
  56   0.0000       0.675131        18.3712 
  57   0.0000       0.684573        18.6282 
  58   0.0000       0.704299        19.1650 
  59   0.0000       0.711728        19.3671 
  60   0.0000       0.732058        19.9203 
  61   0.0000       0.752696        20.4819 
  62   0.0000       0.781794        21.2737 
  63   0.0000       0.802607        21.8401 
  64   0.0000       0.804989        21.9049 
  65   0.0000       0.834328        22.7032 
  66   0.0000       0.923184        25.1211 
  67   0.0000       0.967636        26.3307 
  68   0.0000       1.027223        27.9522 
  69   0.0000       1.051598        28.6154 
  70   0.0000       1.070471        29.1290 
  71   0.0000       1.098365        29.8880 
  72   0.0000       1.162096        31.6222 
  73   0.0000       1.195361        32.5274 
  74   0.0000       1.208644        32.8889 
  75   0.0000       1.246796        33.9271 
  76   0.0000       1.287971        35.0475 
  77   0.0000       1.298981        35.3471 
  78   0.0000       1.373204        37.3668 
  79   0.0000       1.454560        39.5806 
  80   0.0000       1.477568        40.2067 
  81   0.0000       1.547512        42.1100 
  82   0.0000       1.558216        42.4012 
  83   0.0000       1.580885        43.0181 
  84   0.0000       1.627946        44.2987 
  85   0.0000       1.664264        45.2869 
  86   0.0000       1.670874        45.4668 
  87   0.0000       1.717302        46.7302 
  88   0.0000       1.721706        46.8500 
  89   0.0000       1.763275        47.9812 
  90   0.0000       1.785576        48.5880 
  91   0.0000       1.808084        49.2005 
  92   0.0000       1.840668        50.0871 
  93   0.0000       1.869098        50.8607 
  94   0.0000       1.883708        51.2583 
  95   0.0000       1.900896        51.7260 
  96   0.0000       1.937971        52.7349 
  97   0.0000       1.951275        53.0969 
  98   0.0000       1.977233        53.8032 
  99   0.0000       2.034146        55.3519 
 100   0.0000       2.055416        55.9307 
 101   0.0000       2.114092        57.5274 
 102   0.0000       2.126700        57.8704 
 103   0.0000       2.151588        58.5477 
 104   0.0000       2.206502        60.0420 
 105   0.0000       2.221419        60.4479 
 106   0.0000       2.271369        61.8071 
 107   0.0000       2.295877        62.4740 
 108   0.0000       2.348998        63.9195 
 109   0.0000       2.384854        64.8952 
 110   0.0000       2.424010        65.9607 
 111   0.0000       2.462503        67.0081 
 112   0.0000       2.490024        67.7570 
 113   0.0000       2.514266        68.4166 
 114   0.0000       2.541659        69.1621 
 115   0.0000       2.638451        71.7959 
 116   0.0000       2.663492        72.4773 
 117   0.0000       2.666487        72.5588 
 118   0.0000       2.711414        73.7813 
 119   0.0000       2.720411        74.0261 
 120   0.0000       2.822583        76.8064 
 121   0.0000       2.857584        77.7588 
 122   0.0000       2.940516        80.0155 
 123   0.0000       2.971542        80.8598 
 124   0.0000       3.032707        82.5242 
 125   0.0000       3.046735        82.9059 
 126   0.0000       3.116730        84.8105 
 127   0.0000       3.133402        85.2642 
 128   0.0000       3.225668        87.7749 
 129   0.0000       3.350606        91.1746 
 130   0.0000       3.413112        92.8755 
 131   0.0000       3.601651        98.0059 
 132   0.0000       3.908531       106.3565 

                    ********************************
                    * MULLIKEN POPULATION ANALYSIS *
                    ********************************

--------------------------------------------
MULLIKEN ATOMIC CHARGES AND SPIN POPULATIONS
--------------------------------------------
   0 O :   -0.165926    0.008420
   1 O :   -0.274065    0.011477
   2 C :    0.132043   -0.049837
   3 C :   -0.064102    0.702258
   4 C :   -0.003764   -0.325789
   5 C :   -0.112343    0.708605
   6 C :    0.043873   -0.064456
   7 H :    0.192338   -0.000234
   8 H :    0.045091    0.021276
   9 H :    0.041660   -0.033973
  10 H :    0.030227    0.011199
  11 H :    0.035589   -0.035099
  12 H :    0.058202    0.024058
  13 H :    0.041177    0.022096
Sum of atomic charges         :   -0.0000000
Sum of atomic spin populations:    1.0000000

-----------------------------------------------------
MULLIKEN REDUCED ORBITAL CHARGES AND SPIN POPULATIONS
-----------------------------------------------------
CHARGE
  0 O s       :     3.777456  s :     3.777456
      pz      :     1.675360  p :     4.369369
      px      :     1.302275
      py      :     1.391733
      dz2     :     0.001901  d :     0.019101
      dxz     :     0.003755
      dyz     :     0.004113
      dx2y2   :     0.005795
      dxy     :     0.003538
  1 O s       :     3.857926  s :     3.857926
      pz      :     1.493148  p :     4.392885
      px      :     1.145993
      py      :     1.753744
      dz2     :     0.005160  d :     0.023254
      dxz     :     0.006550
      dyz     :     0.002997
      dx2y2   :     0.003931
      dxy     :     0.004617
  2 C s       :     3.051811  s :     3.051811
      pz      :     0.824133  p :     2.746443
      px      :     0.928590
      py      :     0.993720
      dz2     :     0.012109  d :     0.069703
      dxz     :     0.020702
      dyz     :     0.016026
      dx2y2   :     0.008334
      dxy     :     0.012532
  3 C s       :     3.213512  s :     3.213512
      pz      :     0.981964  p :     2.818672
      px      :     0.935955
      py      :     0.900752
      dz2     :     0.002875  d :     0.031919
      dxz     :     0.005588
      dyz     :     0.004252
      dx2y2   :     0.009317
      dxy     :     0.009887
  4 C s       :     3.168534  s :     3.168534
      pz      :     0.973819  p :     2.797383
      px      :     0.873663
      py      :     0.949901
      dz2     :     0.005120  d :     0.037847
      dxz     :     0.005784
      dyz     :     0.005758
      dx2y2   :     0.010814
      dxy     :     0.010370
  5 C s       :     3.232715  s :     3.232715
      pz      :     0.972152  p :     2.845670
      px      :     0.946751
      py      :     0.926767
      dz2     :     0.004388  d :     0.033958
      dxz     :     0.005142
      dyz     :     0.005007
      dx2y2   :     0.009525
      dxy     :     0.009895
  6 C s       :     2.960180  s :     2.960180
      pz      :     1.008056  p :     2.962329
      px      :     0.943025
      py      :     1.011249
      dz2     :     0.007068  d :     0.033618
      dxz     :     0.006010
      dyz     :     0.005406
      dx2y2   :     0.008042
      dxy     :     0.007092
  7 H s       :     0.740827  s :     0.740827
      pz      :     0.024865  p :     0.066835
      px      :     0.011478
      py      :     0.030491
  8 H s       :     0.934226  s :     0.934226
      pz      :     0.007140  p :     0.020683
      px      :     0.007256
      py      :     0.006286
  9 H s       :     0.934356  s :     0.934356
      pz      :     0.007556  p :     0.023985
      px      :     0.003100
      py      :     0.013328
 10 H s       :     0.946456  s :     0.946456
      pz      :     0.004587  p :     0.023317
      px      :     0.013865
      py      :     0.004865
 11 H s       :     0.940690  s :     0.940690
      pz      :     0.006050  p :     0.023721
      px      :     0.008608
      py      :     0.009063
 12 H s       :     0.918671  s :     0.918671
      pz      :     0.013870  p :     0.023127
      px      :     0.005012
      py      :     0.004245
 13 H s       :     0.935759  s :     0.935759
      pz      :     0.007042  p :     0.023065
      px      :     0.005418
      py      :     0.010605

SPIN
  0 O s       :     0.000094  s :     0.000094
      pz      :     0.000232  p :     0.008314
      px      :     0.006653
      py      :     0.001429
      dz2     :     0.000010  d :     0.000012
      dxz     :     0.000004
      dyz     :    -0.000001
      dx2y2   :    -0.000012
      dxy     :     0.000011
  1 O s       :     0.001349  s :     0.001349
      pz      :     0.011910  p :     0.009988
      px      :    -0.000999
      py      :    -0.000924
      dz2     :     0.000044  d :     0.000140
      dxz     :     0.000030
      dyz     :     0.000014
      dx2y2   :     0.000008
      dxy     :     0.000044
  2 C s       :    -0.016742  s :    -0.016742
      pz      :    -0.010348  p :    -0.037252
      px      :    -0.013405
      py      :    -0.013499
      dz2     :    -0.000007  d :     0.004156
      dxz     :     0.003333
      dyz     :     0.000172
      dx2y2   :     0.000052
      dxy     :     0.000607
  3 C s       :     0.097867  s :     0.097867
      pz      :     0.451720  p :     0.607137
      px      :     0.025270
      py      :     0.130147
      dz2     :    -0.000941  d :    -0.002746
      dxz     :    -0.000462
      dyz     :    -0.001059
      dx2y2   :    -0.000069
      dxy     :    -0.000215
  4 C s       :    -0.056897  s :    -0.056897
      pz      :    -0.174499  p :    -0.277698
      px      :    -0.027212
      py      :    -0.075988
      dz2     :     0.003377  d :     0.008806
      dxz     :     0.001238
      dyz     :     0.002651
      dx2y2   :     0.001211
      dxy     :     0.000329
  5 C s       :     0.095240  s :     0.095240
      pz      :     0.457446  p :     0.615887
      px      :     0.023585
      py      :     0.134856
      dz2     :    -0.001223  d :    -0.002522
      dxz     :     0.000131
      dyz     :    -0.001205
      dx2y2   :    -0.000256
      dxy     :     0.000032
  6 C s       :    -0.020388  s :    -0.020388
      pz      :    -0.011913  p :    -0.047683
      px      :    -0.029419
      py      :    -0.006351
      dz2     :     0.000419  d :     0.003616
      dxz     :     0.002487
      dyz     :     0.000123
      dx2y2   :    -0.000039
      dxy     :     0.000626
  7 H s       :    -0.000368  s :    -0.000368
      pz      :     0.000019  p :     0.000134
      px      :     0.000115
      py      :    -0.000000
  8 H s       :     0.021299  s :     0.021299
      pz      :     0.000047  p :    -0.000023
      px      :    -0.000196
      py      :     0.000126
  9 H s       :    -0.037575  s :    -0.037575
      pz      :     0.002794  p :     0.003602
      px      :    -0.000089
      py      :     0.000898
 10 H s       :     0.012305  s :     0.012305
      pz      :    -0.000807  p :    -0.001107
      px      :    -0.000074
      py      :    -0.000226
 11 H s       :    -0.038860  s :    -0.038860
      pz      :     0.002906  p :     0.003761
      px      :     0.000073
      py      :     0.000781
 12 H s       :     0.024205  s :     0.024205
      pz      :    -0.000079  p :    -0.000147
      px      :    -0.000091
      py      :     0.000023
 13 H s       :     0.022275  s :     0.022275
      pz      :    -0.000040  p :    -0.000178
      px      :    -0.000112
      py      :    -0.000027


                     *******************************
                     * LOEWDIN POPULATION ANALYSIS *
                     *******************************

-------------------------------------------
LOEWDIN ATOMIC CHARGES AND SPIN POPULATIONS
-------------------------------------------
   0 O :   -0.062889    0.006696
   1 O :   -0.096839    0.018233
   2 C :    0.041744   -0.001240
   3 C :   -0.028462    0.548397
   4 C :   -0.042402   -0.175254
   5 C :   -0.017590    0.558876
   6 C :   -0.056582   -0.010037
   7 H :    0.073356    0.000223
   8 H :    0.021860    0.018406
   9 H :    0.029310   -0.001593
  10 H :    0.034181    0.000392
  11 H :    0.025060   -0.001457
  12 H :    0.041485    0.020600
  13 H :    0.037767    0.017759

----------------------------------------------------
LOEWDIN REDUCED ORBITAL CHARGES AND SPIN POPULATIONS
----------------------------------------------------
CHARGE
  0 O s       :     3.544535  s :     3.544535
      pz      :     1.704042  p :     4.484528
      px      :     1.342277
      py      :     1.438208
      dz2     :     0.002583  d :     0.033826
      dxz     :     0.005560
      dyz     :     0.008475
      dx2y2   :     0.010706
      dxy     :     0.006501
  1 O s       :     3.570810  s :     3.570810
      pz      :     1.540775  p :     4.486125
      px      :     1.198557
      py      :     1.746793
      dz2     :     0.008045  d :     0.039904
      dxz     :     0.011786
      dyz     :     0.004793
      dx2y2   :     0.007607
      dxy     :     0.007673
  2 C s       :     2.858562  s :     2.858562
      pz      :     0.915757  p :     2.939281
      px      :     0.991595
      py      :     1.031930
      dz2     :     0.025545  d :     0.160413
      dxz     :     0.049382
      dyz     :     0.037830
      dx2y2   :     0.016344
      dxy     :     0.031313
  3 C s       :     2.895668  s :     2.895668
      pz      :     0.989411  p :     3.052463
      px      :     1.035545
      py      :     1.027506
      dz2     :     0.006123  d :     0.080331
      dxz     :     0.013150
      dyz     :     0.008909
      dx2y2   :     0.023745
      dxy     :     0.028404
  4 C s       :     2.871162  s :     2.871162
      pz      :     0.979125  p :     3.073072
      px      :     1.050390
      py      :     1.043558
      dz2     :     0.011808  d :     0.098167
      dxz     :     0.012893
      dyz     :     0.014675
      dx2y2   :     0.030089
      dxy     :     0.028702
  5 C s       :     2.893001  s :     2.893001
      pz      :     0.977115  p :     3.041675
      px      :     1.028395
      py      :     1.036165
      dz2     :     0.008525  d :     0.082914
      dxz     :     0.010993
      dyz     :     0.011831
      dx2y2   :     0.026879
      dxy     :     0.024686
  6 C s       :     2.848038  s :     2.848038
      pz      :     1.058832  p :     3.122164
      px      :     1.028025
      py      :     1.035307
      dz2     :     0.018746  d :     0.086379
      dxz     :     0.014030
      dyz     :     0.013993
      dx2y2   :     0.022559
      dxy     :     0.017051
  7 H s       :     0.747657  s :     0.747657
      pz      :     0.067849  p :     0.178987
      px      :     0.032660
      py      :     0.078478
  8 H s       :     0.911488  s :     0.911488
      pz      :     0.023199  p :     0.066651
      px      :     0.022643
      py      :     0.020809
  9 H s       :     0.896978  s :     0.896978
      pz      :     0.023438  p :     0.073712
      px      :     0.011495
      py      :     0.038779
 10 H s       :     0.898161  s :     0.898161
      pz      :     0.013889  p :     0.067658
      px      :     0.038666
      py      :     0.015103
 11 H s       :     0.901983  s :     0.901983
      pz      :     0.019455  p :     0.072957
      px      :     0.026983
      py      :     0.026519
 12 H s       :     0.891034  s :     0.891034
      pz      :     0.038988  p :     0.067481
      px      :     0.015063
      py      :     0.013431
 13 H s       :     0.894444  s :     0.894444
      pz      :     0.019099  p :     0.067789
      px      :     0.016456
      py      :     0.032234

SPIN
  0 O s       :    -0.000076  s :    -0.000076
      pz      :     0.000241  p :     0.006718
      px      :     0.005326
      py      :     0.001150
      dz2     :     0.000042  d :     0.000054
      dxz     :    -0.000010
      dyz     :    -0.000007
      dx2y2   :    -0.000007
      dxy     :     0.000037
  1 O s       :     0.007159  s :     0.007159
      pz      :     0.011077  p :     0.010903
      px      :     0.000381
      py      :    -0.000554
      dz2     :    -0.000011  d :     0.000170
      dxz     :    -0.000004
      dyz     :     0.000006
      dx2y2   :     0.000042
      dxy     :     0.000137
  2 C s       :    -0.002312  s :    -0.002312
      pz      :    -0.001689  p :    -0.009751
      px      :    -0.003038
      py      :    -0.005023
      dz2     :     0.000111  d :     0.010823
      dxz     :     0.008254
      dyz     :     0.000388
      dx2y2   :     0.000233
      dxy     :     0.001836
  3 C s       :     0.020726  s :     0.020726
      pz      :     0.407797  p :     0.533104
      px      :     0.013071
      py      :     0.112237
      dz2     :    -0.001121  d :    -0.005433
      dxz     :    -0.001395
      dyz     :    -0.001283
      dx2y2   :    -0.000620
      dxy     :    -0.001014
  4 C s       :    -0.010702  s :    -0.010702
      pz      :    -0.134070  p :    -0.186231
      px      :    -0.007709
      py      :    -0.044451
      dz2     :     0.007643  d :     0.021679
      dxz     :     0.003234
      dyz     :     0.006110
      dx2y2   :     0.003253
      dxy     :     0.001439
  5 C s       :     0.021120  s :     0.021120
      pz      :     0.416114  p :     0.542975
      px      :     0.012073
      py      :     0.114787
      dz2     :    -0.001892  d :    -0.005219
      dxz     :     0.000014
      dyz     :    -0.001833
      dx2y2   :    -0.001039
      dxy     :    -0.000468
  6 C s       :    -0.003247  s :    -0.003247
      pz      :    -0.002857  p :    -0.016299
      px      :    -0.011885
      py      :    -0.001558
      dz2     :     0.001384  d :     0.009509
      dxz     :     0.005732
      dyz     :     0.000406
      dx2y2   :     0.000395
      dxy     :     0.001593
  7 H s       :    -0.000190  s :    -0.000190
      pz      :     0.000063  p :     0.000412
      px      :     0.000330
      py      :     0.000019
  8 H s       :     0.018757  s :     0.018757
      pz      :    -0.000115  p :    -0.000351
      px      :    -0.000185
      py      :    -0.000050
  9 H s       :    -0.017035  s :    -0.017035
      pz      :     0.010696  p :     0.015442
      px      :     0.000263
      py      :     0.004483
 10 H s       :     0.005415  s :     0.005415
      pz      :    -0.003194  p :    -0.005023
      px      :    -0.000705
      py      :    -0.001124
 11 H s       :    -0.017414  s :    -0.017414
      pz      :     0.010970  p :     0.015957
      px      :     0.001188
      py      :     0.003799
 12 H s       :     0.021267  s :     0.021267
      pz      :    -0.000412  p :    -0.000667
      px      :    -0.000217
      py      :    -0.000039
 13 H s       :     0.018453  s :     0.018453
      pz      :    -0.000133  p :    -0.000694
      px      :    -0.000274
      py      :    -0.000287


                      *****************************
                      * MAYER POPULATION ANALYSIS *
                      *****************************

  NA   - Mulliken gross atomic population
  ZA   - Total nuclear charge
  QA   - Mulliken gross atomic charge
  VA   - Mayer's total valence
  BVA  - Mayer's bonded valence
  FA   - Mayer's free valence

  ATOM       NA         ZA         QA         VA         BVA        FA
  0 O      8.1659     8.0000    -0.1659     1.9794     1.9793     0.0001
  1 O      8.2741     8.0000    -0.2741     1.9149     1.9146     0.0003
  2 C      5.8680     6.0000     0.1320     3.9559     3.9539     0.0019
  3 C      6.0641     6.0000    -0.0641     3.8757     3.5510     0.3247
  4 C      6.0038     6.0000    -0.0038     3.8733     3.8262     0.0471
  5 C      6.1123     6.0000    -0.1123     3.9152     3.5821     0.3331
  6 C      5.9561     6.0000     0.0439     3.8750     3.8731     0.0019
  7 H      0.8077     1.0000     0.1923     1.0020     1.0020     0.0000
  8 H      0.9549     1.0000     0.0451     0.9835     0.9830     0.0005
  9 H      0.9583     1.0000     0.0417     0.9941     0.9927     0.0014
 10 H      0.9698     1.0000     0.0302     0.9854     0.9853     0.0002
 11 H      0.9644     1.0000     0.0356     0.9897     0.9882     0.0015
 12 H      0.9418     1.0000     0.0582     0.9760     0.9754     0.0006
 13 H      0.9588     1.0000     0.0412     1.0031     1.0026     0.0005

  Mayer bond orders larger than 0.100000
B(  0-O ,  1-O ) :   0.9289 B(  0-O ,  7-H ) :   0.9731 B(  1-O ,  2-C ) :   0.9212 
B(  2-C ,  3-C ) :   1.0248 B(  2-C ,  6-C ) :   1.0330 B(  2-C ,  8-H ) :   0.9215 
B(  3-C ,  4-C ) :   1.3984 B(  3-C ,  5-C ) :   0.1292 B(  3-C ,  9-H ) :   0.9884 
B(  4-C ,  5-C ) :   1.4122 B(  4-C , 10-H ) :   0.9952 B(  5-C ,  6-C ) :   1.0329 
B(  5-C , 11-H ) :   0.9865 B(  6-C , 12-H ) :   0.9273 B(  6-C , 13-H ) :   0.9190 



------------------
HIRSHFELD ANALYSIS
------------------

Total integrated alpha density =     27.000013041
Total integrated beta density  =     26.000007468

  ATOM     CHARGE      SPIN    
   0 O   -0.165838    0.007436
   1 O   -0.121314    0.021646
   2 C    0.059145    0.027892
   3 C   -0.031642    0.431329
   4 C   -0.046513   -0.061813
   5 C   -0.024455    0.440058
   6 C   -0.050196    0.026723
   7 H    0.171418    0.000593
   8 H    0.028092    0.018899
   9 H    0.039955    0.027246
  10 H    0.042850   -0.006021
  11 H    0.035507    0.028117
  12 H    0.033146    0.020288
  13 H    0.029825    0.017613

  TOTAL  -0.000021    1.000006

-------
TIMINGS
-------

Total SCF time: 0 days 0 hours 0 min 7 sec 

Total time                  ....       7.163 sec
Sum of individual times     ....       7.029 sec  ( 98.1%)

Fock matrix formation       ....       6.196 sec  ( 86.5%)
  Split-RI-J                ....       0.575 sec  (  9.3% of F)
  Chain of spheres X        ....       4.041 sec  ( 65.2% of F)
  XC integration            ....       1.523 sec  ( 24.6% of F)
    Basis function eval.    ....       0.396 sec  ( 26.0% of XC)
    Density eval.           ....       0.376 sec  ( 24.7% of XC)
    XC-Functional eval.     ....       0.139 sec  (  9.1% of XC)
    XC-Potential eval.      ....       0.472 sec  ( 31.0% of XC)
Diagonalization             ....       0.111 sec  (  1.5%)
Density matrix formation    ....       0.006 sec  (  0.1%)
Population analysis         ....       0.138 sec  (  1.9%)
Initial guess               ....       0.037 sec  (  0.5%)
Orbital Transformation      ....       0.000 sec  (  0.0%)
Orbital Orthonormalization  ....       0.000 sec  (  0.0%)
DIIS solution               ....       0.075 sec  (  1.1%)
Grid generation             ....       0.465 sec  (  6.5%)

Maximum memory used throughout the entire SCF-calculation: 50.7 MB


-------------------------------------------------------------------------------
                          DFT DISPERSION CORRECTION                            
                                                                               
                              DFTD3 V3.1  Rev 1                                
                          USING Becke-Johnson damping                          
-------------------------------------------------------------------------------
The PBE0 functional is recognized
Active option DFTDOPT                   ...         4   

molecular C6(AA) [au] = 1774.856413 


            DFT-D V3
 parameters
 s6 scaling factor         :     1.0000 
 a1 scaling factor         :     0.4145 
 s8 scaling factor         :     1.2177 
 a2 scaling factor         :     4.8593 
 ad hoc parameters k1-k3   :    16.0000     1.3333    -4.0000 

 Edisp/kcal,au: -6.245355081041  -0.009952605774 
 E6   /kcal   :  -3.967295577 
 E8   /kcal   :  -2.278059504 
 % E8         :  36.476060596 

-------------------------   ----------------
Dispersion correction           -0.009952606
-------------------------   ----------------


-------------------------   --------------------
FINAL SINGLE POINT ENERGY      -344.396840698404
-------------------------   --------------------



           ************************************************************
           *        Program running with 8 parallel MPI-processes     *
           *              working on a common directory               *
           ************************************************************
------------------------------------------------------------------------------
                         ORCA SCF GRADIENT CALCULATION
------------------------------------------------------------------------------

 ... reading COSX grid (gridx3)
Gradient of the Kohn-Sham DFT energy:
Kohn-Sham wavefunction type      ... UKS
Hartree-Fock exchange scaling    ...    0.250
Number of operators              ...    2
Number of atoms                  ...   14
Basis set dimensions             ...  133
Integral neglect threshold       ... 2.5e-11
Integral primitive cutoff        ... 2.5e-12
SHARK Integral package           ... ON

Nuc. rep. gradient       (SHARK) ... done (  0.0 sec)
HCore & Overlap gradient (SHARK) ... done (  0.0 sec)
RI-J gradient            (SHARK) ... done (  0.1 sec)
COSX-gradient                    ... done (  0.9 sec)
Exchange-correlation gradient    ... done
Dispersion correction            ... done

------------------
CARTESIAN GRADIENT
------------------

   1   O   :    0.000461756    0.000232662    0.000161490
   2   O   :   -0.000122892   -0.000100057   -0.000278381
   3   C   :   -0.000260280   -0.000145515   -0.000040772
   4   C   :   -0.000230941    0.000278338    0.000182147
   5   C   :    0.000068609   -0.000062560   -0.000044120
   6   C   :   -0.000024132   -0.000082480    0.000102977
   7   C   :   -0.000006664   -0.000120704   -0.000117527
   8   H   :   -0.000073394   -0.000052512    0.000019353
   9   H   :   -0.000026473   -0.000060781   -0.000012882
  10   H   :    0.000123887    0.000039930    0.000069705
  11   H   :    0.000087241   -0.000005938    0.000001236
  12   H   :    0.000132580    0.000025507    0.000016717
  13   H   :    0.000002004    0.000114473   -0.000021864
  14   H   :   -0.000035175   -0.000012948    0.000128416

Difference to translation invariance:
           :    0.0000961248    0.0000474150    0.0001664944

Difference to rotation invariance:
           :   -0.0001580255   -0.0001495934    0.0001372436

Norm of the cartesian gradient     ...    0.0008944862
RMS gradient                       ...    0.0001380222
MAX gradient                       ...    0.0004617556

-------
TIMINGS
-------

Total SCF gradient time            ...        1.721 sec

One electron gradient       ....       0.016 sec  (  1.0%)
RI-J Coulomb gradient       ....       0.122 sec  (  7.1%)
COSX gradient               ....       0.883 sec  ( 51.3%)
XC gradient                 ....       0.488 sec  ( 28.4%)

Maximum memory used throughout the entire SCFGRAD-calculation: 38.8 MB
------------------------------------------------------------------------------
                         ORCA GEOMETRY RELAXATION STEP
------------------------------------------------------------------------------

Reading the OPT-File                    .... done
Getting information on internals        .... done
Copying old internal coords+grads       .... done
Making the new internal coordinates     .... (new redundants).... done
Validating the new internal coordinates .... (new redundants).... done
Calculating the B-matrix                .... done
Calculating the G,G- and P matrices     .... done
Transforming gradient to internals      .... done
Projecting the internal gradient        .... done
Number of atoms                         ....  14
Number of internal coordinates          ....  70
Current Energy                          ....  -344.396840698 Eh
Current gradient norm                   ....     0.000894486 Eh/bohr
Maximum allowed component of the step   ....  0.300
Current trust radius                    ....  0.300
Evaluating the initial hessian          ....  (Almloef) done
Projecting the Hessian                  .... done
Forming the augmented Hessian           .... done
Diagonalizing the augmented Hessian     .... done
Last element of RFO vector              ....  0.999980339
Lowest eigenvalues of augmented Hessian:
 -0.000002034  0.011673144  0.014326244  0.017828748  0.019163947
Length of the computed step             ....  0.006270837
The final length of the internal step   ....  0.006270837
Converting the step to cartesian space:
 Initial RMS(Int)=    0.0007495084
Transforming coordinates:
 Iter   0:  RMS(Cart)=    0.0010832849 RMS(Int)=    0.0007495253
 Iter   1:  RMS(Cart)=    0.0000008390 RMS(Int)=    0.0000004212
 Iter   2:  RMS(Cart)=    0.0000000011 RMS(Int)=    0.0000000005
done
Storing new coordinates                 .... done

                                .--------------------.
          ----------------------|Geometry convergence|-------------------------
          Item                value                   Tolerance       Converged
          ---------------------------------------------------------------------
          RMS gradient        0.0000886382            0.0001000000      YES
          MAX gradient        0.0004431037            0.0003000000      NO
          RMS step            0.0007495084            0.0020000000      YES
          MAX step            0.0018953813            0.0040000000      YES
          ........................................................
          Max(Bonds)      0.0005      Max(Angles)    0.04
[...]
      px      :     0.946840
      py      :     0.926651
      dz2     :     0.004389  d :     0.033967
      dxz     :     0.005148
      dyz     :     0.005011
      dx2y2   :     0.009525
      dxy     :     0.009893
  6 C s       :     2.960058  s :     2.960058
      pz      :     1.008430  p :     2.962752
      px      :     0.943162
      py      :     1.011161
      dz2     :     0.007048  d :     0.033633
      dxz     :     0.006019
      dyz     :     0.005428
      dx2y2   :     0.008055
      dxy     :     0.007084
  7 H s       :     0.740795  s :     0.740795
      pz      :     0.024830  p :     0.066848
      px      :     0.011510
      py      :     0.030508
  8 H s       :     0.934128  s :     0.934128
      pz      :     0.007152  p :     0.020685
      px      :     0.007239
      py      :     0.006294
  9 H s       :     0.934408  s :     0.934408
      pz      :     0.007544  p :     0.023986
      px      :     0.003103
      py      :     0.013340
 10 H s       :     0.946471  s :     0.946471
      pz      :     0.004582  p :     0.023324
      px      :     0.013869
      py      :     0.004872
 11 H s       :     0.940725  s :     0.940725
      pz      :     0.006059  p :     0.023726
      px      :     0.008594
      py      :     0.009073
 12 H s       :     0.918718  s :     0.918718
      pz      :     0.013861  p :     0.023132
      px      :     0.005023
      py      :     0.004248
 13 H s       :     0.935829  s :     0.935829
      pz      :     0.007062  p :     0.023073
      px      :     0.005408
      py      :     0.010603

SPIN
  0 O s       :     0.000093  s :     0.000093
      pz      :     0.000223  p :     0.008276
      px      :     0.006627
      py      :     0.001427
      dz2     :     0.000010  d :     0.000012
      dxz     :     0.000004
      dyz     :    -0.000001
      dx2y2   :    -0.000012
      dxy     :     0.000011
  1 O s       :     0.001332  s :     0.001332
      pz      :     0.011964  p :     0.010064
      px      :    -0.000976
      py      :    -0.000924
      dz2     :     0.000044  d :     0.000139
      dxz     :     0.000030
      dyz     :     0.000014
      dx2y2   :     0.000008
      dxy     :     0.000044
  2 C s       :    -0.016747  s :    -0.016747
      pz      :    -0.010396  p :    -0.037243
      px      :    -0.013361
      py      :    -0.013486
      dz2     :    -0.000005  d :     0.004164
      dxz     :     0.003337
      dyz     :     0.000169
      dx2y2   :     0.000050
      dxy     :     0.000613
  3 C s       :     0.097797  s :     0.097797
      pz      :     0.451556  p :     0.606618
      px      :     0.025223
      py      :     0.129839
      dz2     :    -0.000944  d :    -0.002745
      dxz     :    -0.000462
      dyz     :    -0.001054
      dx2y2   :    -0.000069
      dxy     :    -0.000215
  4 C s       :    -0.056868  s :    -0.056868
      pz      :    -0.174376  p :    -0.277560
      px      :    -0.027178
      py      :    -0.076007
      dz2     :     0.003395  d :     0.008808
      dxz     :     0.001234
      dyz     :     0.002640
      dx2y2   :     0.001207
      dxy     :     0.000332
  5 C s       :     0.095290  s :     0.095290
      pz      :     0.457389  p :     0.616021
      px      :     0.023557
      py      :     0.135075
      dz2     :    -0.001226  d :    -0.002522
      dxz     :     0.000132
      dyz     :    -0.001205
      dx2y2   :    -0.000255
      dxy     :     0.000032
  6 C s       :    -0.020418  s :    -0.020418
      pz      :    -0.011914  p :    -0.047728
      px      :    -0.029437
      py      :    -0.006377
      dz2     :     0.000410  d :     0.003619
      dxz     :     0.002494
      dyz     :     0.000128
      dx2y2   :    -0.000039
      dxy     :     0.000626
  7 H s       :    -0.000364  s :    -0.000364
      pz      :     0.000019  p :     0.000133
      px      :     0.000115
      py      :    -0.000000
  8 H s       :     0.021445  s :     0.021445
      pz      :     0.000047  p :    -0.000022
      px      :    -0.000196
      py      :     0.000126
  9 H s       :    -0.037551  s :    -0.037551
      pz      :     0.002796  p :     0.003600
      px      :    -0.000089
      py      :     0.000893
 10 H s       :     0.012303  s :     0.012303
      pz      :    -0.000806  p :    -0.001107
      px      :    -0.000074
      py      :    -0.000227
 11 H s       :    -0.038863  s :    -0.038863
      pz      :     0.002909  p :     0.003763
      px      :     0.000072
      py      :     0.000781
 12 H s       :     0.024193  s :     0.024193
      pz      :    -0.000078  p :    -0.000147
      px      :    -0.000092
      py      :     0.000023
 13 H s       :     0.022396  s :     0.022396
      pz      :    -0.000040  p :    -0.000179
      px      :    -0.000112
      py      :    -0.000027


                     *******************************
                     * LOEWDIN POPULATION ANALYSIS *
                     *******************************

-------------------------------------------
LOEWDIN ATOMIC CHARGES AND SPIN POPULATIONS
-------------------------------------------
   0 O :   -0.062847    0.006662
   1 O :   -0.097062    0.018258
   2 C :    0.041821   -0.001216
   3 C :   -0.028489    0.547896
   4 C :   -0.042309   -0.175142
   5 C :   -0.017536    0.559009
   6 C :   -0.056579   -0.010024
   7 H :    0.073277    0.000224
   8 H :    0.021961    0.018526
   9 H :    0.029291   -0.001584
  10 H :    0.034194    0.000391
  11 H :    0.025037   -0.001444
  12 H :    0.041490    0.020593
  13 H :    0.037750    0.017852

----------------------------------------------------
LOEWDIN REDUCED ORBITAL CHARGES AND SPIN POPULATIONS
----------------------------------------------------
CHARGE
  0 O s       :     3.545029  s :     3.545029
      pz      :     1.704441  p :     4.484085
      px      :     1.343625
      py      :     1.436019
      dz2     :     0.002560  d :     0.033733
      dxz     :     0.005557
      dyz     :     0.008465
      dx2y2   :     0.010675
      dxy     :     0.006476
  1 O s       :     3.571478  s :     3.571478
      pz      :     1.540553  p :     4.485815
      px      :     1.198870
      py      :     1.746392
      dz2     :     0.007993  d :     0.039769
      dxz     :     0.011788
      dyz     :     0.004789
      dx2y2   :     0.007557
      dxy     :     0.007642
  2 C s       :     2.858493  s :     2.858493
      pz      :     0.915993  p :     2.939357
      px      :     0.991283
      py      :     1.032080
      dz2     :     0.025437  d :     0.160329
      dxz     :     0.049394
      dyz     :     0.037767
      dx2y2   :     0.016406
      dxy     :     0.031325
  3 C s       :     2.895429  s :     2.895429
      pz      :     0.989502  p :     3.052636
      px      :     1.035619
      py      :     1.027515
      dz2     :     0.006131  d :     0.080424
      dxz     :     0.013186
      dyz     :     0.008896
      dx2y2   :     0.023803
      dxy     :     0.028409
  4 C s       :     2.871030  s :     2.871030
      pz      :     0.979144  p :     3.073067
      px      :     1.050433
      py      :     1.043490
      dz2     :     0.011845  d :     0.098212
      dxz     :     0.012915
      dyz     :     0.014670
      dx2y2   :     0.030069
      dxy     :     0.028712
  5 C s       :     2.892904  s :     2.892904
      pz      :     0.977196  p :     3.041693
      px      :     1.028453
      py      :     1.036044
      dz2     :     0.008525  d :     0.082939
      dxz     :     0.011001
      dyz     :     0.011846
      dx2y2   :     0.026880
      dxy     :     0.024687
  6 C s       :     2.847922  s :     2.847922
      pz      :     1.058956  p :     3.122240
      px      :     1.028094
      py      :     1.035190
      dz2     :     0.018687  d :     0.086417
      dxz     :     0.014051
      dyz     :     0.014053
      dx2y2   :     0.022597
      dxy     :     0.017029
  7 H s       :     0.747679  s :     0.747679
      pz      :     0.067753  p :     0.179044
      px      :     0.032752
      py      :     0.078539
  8 H s       :     0.911386  s :     0.911386
      pz      :     0.023233  p :     0.066654
      px      :     0.022587
      py      :     0.020834
  9 H s       :     0.896995  s :     0.896995
      pz      :     0.023406  p :     0.073714
      px      :     0.011501
      py      :     0.038807
 10 H s       :     0.898127  s :     0.898127
      pz      :     0.013878  p :     0.067678
      px      :     0.038674
      py      :     0.015126
 11 H s       :     0.901983  s :     0.901983
      pz      :     0.019482  p :     0.072981
      px      :     0.026946
      py      :     0.026553
 12 H s       :     0.891023  s :     0.891023
      pz      :     0.038948  p :     0.067487
      px      :     0.015097
      py      :     0.013442
 13 H s       :     0.894436  s :     0.894436
      pz      :     0.019147  p :     0.067814
      px      :     0.016434
      py      :     0.032233

SPIN
  0 O s       :    -0.000077  s :    -0.000077
      pz      :     0.000233  p :     0.006685
      px      :     0.005305
      py      :     0.001147
      dz2     :     0.000042  d :     0.000054
      dxz     :    -0.000010
      dyz     :    -0.000007
      dx2y2   :    -0.000007
      dxy     :     0.000037
  1 O s       :     0.007127  s :     0.007127
      pz      :     0.011128  p :     0.010966
      px      :     0.000397
      py      :    -0.000560
      dz2     :    -0.000012  d :     0.000166
      dxz     :    -0.000004
      dyz     :     0.000006
      dx2y2   :     0.000041
      dxy     :     0.000135
  2 C s       :    -0.002316  s :    -0.002316
      pz      :    -0.001724  p :    -0.009743
      px      :    -0.003004
      py      :    -0.005016
      dz2     :     0.000114  d :     0.010843
      dxz     :     0.008265
      dyz     :     0.000382
      dx2y2   :     0.000231
      dxy     :     0.001851
  3 C s       :     0.020693  s :     0.020693
      pz      :     0.407613  p :     0.532636
      px      :     0.013034
      py      :     0.111989
      dz2     :    -0.001126  d :    -0.005433
      dxz     :    -0.001396
      dyz     :    -0.001278
      dx2y2   :    -0.000620
      dxy     :    -0.001014
  4 C s       :    -0.010697  s :    -0.010697
      pz      :    -0.133926  p :    -0.186131
      px      :    -0.007693
      py      :    -0.044513
      dz2     :     0.007685  d :     0.021686
      dxz     :     0.003227
      dyz     :     0.006087
      dx2y2   :     0.003242
      dxy     :     0.001445
  5 C s       :     0.021128  s :     0.021128
      pz      :     0.416041  p :     0.543098
      px      :     0.012061
      py      :     0.114996
      dz2     :    -0.001896  d :    -0.005218
      dxz     :     0.000014
      dyz     :    -0.001831
      dx2y2   :    -0.001039
      dxy     :    -0.000466
  6 C s       :    -0.003246  s :    -0.003246
      pz      :    -0.002852  p :    -0.016299
      px      :    -0.011885
      py      :    -0.001563
      dz2     :     0.001361  d :     0.009520
      dxz     :     0.005749
      dyz     :     0.000420
      dx2y2   :     0.000398
      dxy     :     0.001593
  7 H s       :    -0.000186  s :    -0.000186
      pz      :     0.000063  p :     0.000411
      px      :     0.000329
      py      :     0.000019
  8 H s       :     0.018875  s :     0.018875
      pz      :    -0.000116  p :    -0.000348
      px      :    -0.000182
      py      :    -0.000050
  9 H s       :    -0.017019  s :    -0.017019
      pz      :     0.010701  p :     0.015434
      px      :     0.000262
      py      :     0.004471
 10 H s       :     0.005414  s :     0.005414
      pz      :    -0.003192  p :    -0.005024
      px      :    -0.000705
      py      :    -0.001127
 11 H s       :    -0.017413  s :    -0.017413
      pz      :     0.010977  p :     0.015969
      px      :     0.001186
      py      :     0.003807
 12 H s       :     0.021261  s :     0.021261
      pz      :    -0.000411  p :    -0.000668
      px      :    -0.000218
      py      :    -0.000040
 13 H s       :     0.018546  s :     0.018546
      pz      :    -0.000133  p :    -0.000694
      px      :    -0.000274
      py      :    -0.000288


                      *****************************
                      * MAYER POPULATION ANALYSIS *
                      *****************************

  NA   - Mulliken gross atomic population
  ZA   - Total nuclear charge
  QA   - Mulliken gross atomic charge
  VA   - Mayer's total valence
  BVA  - Mayer's bonded valence
  FA   - Mayer's free valence

  ATOM       NA         ZA         QA         VA         BVA        FA
  0 O      8.1660     8.0000    -0.1660     1.9796     1.9796     0.0001
  1 O      8.2743     8.0000    -0.2743     1.9149     1.9146     0.0003
  2 C      5.8673     6.0000     0.1327     3.9558     3.9539     0.0019
  3 C      6.0644     6.0000    -0.0644     3.8761     3.5520     0.3242
  4 C      6.0035     6.0000    -0.0035     3.8730     3.8260     0.0470
  5 C      6.1123     6.0000    -0.1123     3.9151     3.5819     0.3333
  6 C      5.9564     6.0000     0.0436     3.8757     3.8738     0.0019
  7 H      0.8076     1.0000     0.1924     1.0020     1.0020     0.0000
  8 H      0.9548     1.0000     0.0452     0.9834     0.9829     0.0005
  9 H      0.9584     1.0000     0.0416     0.9941     0.9927     0.0014
 10 H      0.9698     1.0000     0.0302     0.9855     0.9853     0.0002
 11 H      0.9645     1.0000     0.0355     0.9897     0.9882     0.0015
 12 H      0.9419     1.0000     0.0581     0.9760     0.9754     0.0006
 13 H      0.9589     1.0000     0.0411     1.0031     1.0026     0.0005

  Mayer bond orders larger than 0.100000
B(  0-O ,  1-O ) :   0.9291 B(  0-O ,  7-H ) :   0.9732 B(  1-O ,  2-C ) :   0.9210 
B(  2-C ,  3-C ) :   1.0253 B(  2-C ,  6-C ) :   1.0332 B(  2-C ,  8-H ) :   0.9213 
B(  3-C ,  4-C ) :   1.3988 B(  3-C ,  5-C ) :   0.1293 B(  3-C ,  9-H ) :   0.9884 
B(  4-C ,  5-C ) :   1.4117 B(  4-C , 10-H ) :   0.9953 B(  5-C ,  6-C ) :   1.0333 
B(  5-C , 11-H ) :   0.9865 B(  6-C , 12-H ) :   0.9273 B(  6-C , 13-H ) :   0.9189 



------------------
HIRSHFELD ANALYSIS
------------------

Total integrated alpha density =     27.000012997
Total integrated beta density  =     26.000007444

  ATOM     CHARGE      SPIN    
   0 O   -0.165794    0.007403
   1 O   -0.121384    0.021662
   2 C    0.059126    0.027931
   3 C   -0.031640    0.430893
   4 C   -0.046449   -0.061731
   5 C   -0.024429    0.440170
   6 C   -0.050200    0.026754
   7 H    0.171320    0.000595
   8 H    0.028113    0.019003
   9 H    0.039928    0.027228
  10 H    0.042896   -0.006016
  11 H    0.035519    0.028135
  12 H    0.033137    0.020284
  13 H    0.029835    0.017692

  TOTAL  -0.000020    1.000006

-------
TIMINGS
-------

Total SCF time: 0 days 0 hours 0 min 4 sec 

Total time                  ....       4.267 sec
Sum of individual times     ....       4.151 sec  ( 97.3%)

Fock matrix formation       ....       3.496 sec  ( 81.9%)
  Split-RI-J                ....       0.323 sec  (  9.2% of F)
  Chain of spheres X        ....       2.549 sec  ( 72.9% of F)
  XC integration            ....       0.604 sec  ( 17.3% of F)
    Basis function eval.    ....       0.169 sec  ( 28.0% of XC)
    Density eval.           ....       0.153 sec  ( 25.3% of XC)
    XC-Functional eval.     ....       0.059 sec  (  9.8% of XC)
    XC-Potential eval.      ....       0.154 sec  ( 25.6% of XC)
Diagonalization             ....       0.051 sec  (  1.2%)
Density matrix formation    ....       0.003 sec  (  0.1%)
Population analysis         ....       0.137 sec  (  3.2%)
Initial guess               ....       0.008 sec  (  0.2%)
Orbital Transformation      ....       0.000 sec  (  0.0%)
Orbital Orthonormalization  ....       0.004 sec  (  0.1%)
DIIS solution               ....       0.028 sec  (  0.7%)
Grid generation             ....       0.427 sec  ( 10.0%)

Maximum memory used throughout the entire SCF-calculation: 50.6 MB


-------------------------------------------------------------------------------
                          DFT DISPERSION CORRECTION                            
                                                                               
                              DFTD3 V3.1  Rev 1                                
                          USING Becke-Johnson damping                          
-------------------------------------------------------------------------------
The PBE0 functional is recognized
Active option DFTDOPT                   ...         4   

molecular C6(AA) [au] = 1774.821431 


            DFT-D V3
 parameters
 s6 scaling factor         :     1.0000 
 a1 scaling factor         :     0.4145 
 s8 scaling factor         :     1.2177 
 a2 scaling factor         :     4.8593 
 ad hoc parameters k1-k3   :    16.0000     1.3333    -4.0000 

 Edisp/kcal,au: -6.245536136111  -0.009952894304 
 E6   /kcal   :  -3.967454256 
 E8   /kcal   :  -2.278081880 
 % E8         :  36.475361447 

-------------------------   ----------------
Dispersion correction           -0.009952894
-------------------------   ----------------


-------------------------   --------------------
FINAL SINGLE POINT ENERGY      -344.396843774963
-------------------------   --------------------

                                *** OPTIMIZATION RUN DONE ***

                            ***************************************
                            *     ORCA property calculations      *
                            ***************************************

                                    ---------------------
                                    Active property flags
                                    ---------------------
   (+) Dipole Moment


------------------------------------------------------------------------------
                       ORCA ELECTRIC PROPERTIES CALCULATION
------------------------------------------------------------------------------

Dipole Moment Calculation                       ... on
Quadrupole Moment Calculation                   ... off
Polarizability Calculation                      ... off
GBWName                                         ... r0_C5H7O2_opt_orca.gbw
Electron density                                ... r0_C5H7O2_opt_orca.scfp
The origin for moment calculation is the CENTER OF MASS  = (-0.471716,  0.155291  0.371766)

-------------
DIPOLE MOMENT
-------------
                                X             Y             Z
Electronic contribution:     -1.99750       0.81109       2.10615
Nuclear contribution   :      2.35907      -1.29764      -2.28552
                        -----------------------------------------
Total Dipole Moment    :      0.36156      -0.48655      -0.17937
                        -----------------------------------------
Magnitude (a.u.)       :      0.63217
Magnitude (Debye)      :      1.60684



--------------------
Rotational spectrum 
--------------------
 
Rotational constants in cm-1:     0.209756     0.066326     0.054646 
Rotational constants in MHz :  6288.337450  1988.396360  1638.254791 

 Dipole components along the rotational axes: 
x,y,z [a.u.] :    -0.347162    -0.487364     0.203936 
x,y,z [Debye]:    -0.882416    -1.238782     0.518365 

 

Timings for individual modules:

Sum of individual times         ...       22.062 sec (=   0.368 min)
GTO integral calculation        ...        1.213 sec (=   0.020 min)   5.5 %
SCF iterations                  ...       16.723 sec (=   0.279 min)  75.8 %
SCF Gradient evaluation         ...        4.054 sec (=   0.068 min)  18.4 %
Geometry relaxation             ...        0.072 sec (=   0.001 min)   0.3 %
                             ****ORCA TERMINATED NORMALLY****
TOTAL RUN TIME: 0 days 0 hours 0 minutes 22 seconds 880 msec
