
                                 *****************
                                 * O   R   C   A *
                                 *****************

                                            #,                                       
                                            ###                                      
                                            ####                                     
                                            #####                                    
                                            ######                                   
                                           ########,                                 
                                     ,,################,,,,,                         
                               ,,#################################,,                 
                          ,,##########################################,,             
                       ,#########################################, ''#####,          
                    ,#############################################,,   '####,        
                  ,##################################################,,,,####,       
                ,###########''''           ''''###############################       
              ,#####''   ,,,,##########,,,,          '''####'''          '####       
            ,##' ,,,,###########################,,,                        '##       
           ' ,,###''''                  '''############,,,                           
         ,,##''                                '''############,,,,        ,,,,,,###''
      ,#''                                            '''#######################'''  
     '                                                          ''''####''''         
             ,#######,   #######,   ,#######,      ##                                
            ,#'     '#,  ##    ##  ,#'     '#,    #''#        ######   ,####,        
            ##       ##  ##   ,#'  ##            #'  '#       #        #'  '#        
            ##       ##  #######   ##           ,######,      #####,   #    #        
            '#,     ,#'  ##    ##  '#,     ,#' ,#      #,         ##   #,  ,#        
             '#######'   ##     ##  '#######'  #'      '#     #####' # '####'        



                  #######################################################
                  #                        -***-                        #
                  #          Department of theory and spectroscopy      #
                  #    Directorship and core code : Frank Neese         #
                  #        Max Planck Institute fuer Kohlenforschung    #
                  #                Kaiser Wilhelm Platz 1               #
                  #                 D-45470 Muelheim/Ruhr               #
                  #                      Germany                        #
                  #                                                     #
                  #                  All rights reserved                #
                  #                        -***-                        #
                  #######################################################


                         Program Version 5.0.4 -  RELEASE  -


 With contributions from (in alphabetic order):
   Daniel Aravena         : Magnetic Suceptibility
   Michael Atanasov       : Ab Initio Ligand Field Theory (pilot matlab implementation)
   Alexander A. Auer      : GIAO ZORA, VPT2 properties, NMR spectrum
   Ute Becker             : Parallelization
   Giovanni Bistoni       : ED, misc. LED, open-shell LED, HFLD
   Martin Brehm           : Molecular dynamics
   Dmytro Bykov           : SCF Hessian
   Vijay G. Chilkuri      : MRCI spin determinant printing, contributions to CSF-ICE
   Dipayan Datta          : RHF DLPNO-CCSD density
   Achintya Kumar Dutta   : EOM-CC, STEOM-CC
   Dmitry Ganyushin       : Spin-Orbit,Spin-Spin,Magnetic field MRCI
   Miquel Garcia          : C-PCM and meta-GGA Hessian, CC/C-PCM, Gaussian charge scheme
   Yang Guo               : DLPNO-NEVPT2, F12-NEVPT2, CIM, IAO-localization
   Andreas Hansen         : Spin unrestricted coupled pair/coupled cluster methods
   Benjamin Helmich-Paris : MC-RPA, TRAH-SCF, COSX integrals
   Lee Huntington         : MR-EOM, pCC
   Robert Izsak           : Overlap fitted RIJCOSX, COSX-SCS-MP3, EOM
   Marcus Kettner         : VPT2
   Christian Kollmar      : KDIIS, OOCD, Brueckner-CCSD(T), CCSD density, CASPT2, CASPT2-K
   Simone Kossmann        : Meta GGA functionals, TD-DFT gradient, OOMP2, MP2 Hessian
   Martin Krupicka        : Initial AUTO-CI
   Lucas Lang             : DCDCAS
   Marvin Lechner         : AUTO-CI (C++ implementation), FIC-MRCC
   Dagmar Lenk            : GEPOL surface, SMD
   Dimitrios Liakos       : Extrapolation schemes; Compound Job, initial MDCI parallelization
   Dimitrios Manganas     : Further ROCIS development; embedding schemes
   Dimitrios Pantazis     : SARC Basis sets
   Anastasios Papadopoulos: AUTO-CI, single reference methods and gradients
   Taras Petrenko         : DFT Hessian,TD-DFT gradient, ASA, ECA, R-Raman, ABS, FL, XAS/XES, NRVS
   Peter Pinski           : DLPNO-MP2, DLPNO-MP2 Gradient
   Christoph Reimann      : Effective Core Potentials
   Marius Retegan         : Local ZFS, SOC
   Christoph Riplinger    : Optimizer, TS searches, QM/MM, DLPNO-CCSD(T), (RO)-DLPNO pert. Triples
   Tobias Risthaus        : Range-separated hybrids, TD-DFT gradient, RPA, STAB
   Michael Roemelt        : Original ROCIS implementation
   Masaaki Saitow         : Open-shell DLPNO-CCSD energy and density
   Barbara Sandhoefer     : DKH picture change effects
   Avijit Sen             : IP-ROCIS
   Kantharuban Sivalingam : CASSCF convergence, NEVPT2, FIC-MRCI
   Bernardo de Souza      : ESD, SOC TD-DFT
   Georgi Stoychev        : AutoAux, RI-MP2 NMR, DLPNO-MP2 response
   Willem Van den Heuvel  : Paramagnetic NMR
   Boris Wezisla          : Elementary symmetry handling
   Frank Wennmohs         : Technical directorship


 We gratefully acknowledge several colleagues who have allowed us to
 interface, adapt or use parts of their codes:
   Stefan Grimme, W. Hujo, H. Kruse, P. Pracht,  : VdW corrections, initial TS optimization,
                  C. Bannwarth, S. Ehlert          DFT functionals, gCP, sTDA/sTD-DF
   Ed Valeev, F. Pavosevic, A. Kumar             : LibInt (2-el integral package), F12 methods
   Garnet Chan, S. Sharma, J. Yang, R. Olivares  : DMRG
   Ulf Ekstrom                                   : XCFun DFT Library
   Mihaly Kallay                                 : mrcc  (arbitrary order and MRCC methods)
   Jiri Pittner, Ondrej Demel                    : Mk-CCSD
   Frank Weinhold                                : gennbo (NPA and NBO analysis)
   Christopher J. Cramer and Donald G. Truhlar   : smd solvation model
   Lars Goerigk                                  : TD-DFT with DH, B97 family of functionals
   V. Asgeirsson, H. Jonsson                     : NEB implementation
   FAccTs GmbH                                   : IRC, NEB, NEB-TS, DLPNO-Multilevel, CI-OPT
                                                   MM, QMMM, 2- and 3-layer-ONIOM, Crystal-QMMM,
                                                   LR-CPCM, SF, NACMEs, symmetry and pop. for TD-DFT,
                                                   nearIR, NL-DFT gradient (VV10), updates on ESD,
                                                   ML-optimized integration grids
   S Lehtola, MJT Oliveira, MAL Marques          : LibXC Library
   Liviu Ungur et al                             : ANISO software


 Your calculation uses the libint2 library for the computation of 2-el integrals
 For citations please refer to: http://libint.valeyev.net

 Your ORCA version has been built with support for libXC version: 5.1.0
 For citations please refer to: https://tddft.org/programs/libxc/

 This ORCA versions uses:
   CBLAS   interface :  Fast vector & matrix operations
   LAPACKE interface :  Fast linear algebra routines
   SCALAPACK package :  Parallel linear algebra routines
   Shared memory     :  Shared parallel matrices
   BLAS/LAPACK       :  OpenBLAS 0.3.15  USE64BITINT DYNAMIC_ARCH NO_AFFINITY Haswell SINGLE_THREADED
        Core in use  :  Haswell
   Copyright (c) 2011-2014, The OpenBLAS Project


Your calculation utilizes the atom-pairwise dispersion correction
with the Becke-Johnson damping scheme (D3BJ)
Cite in your paper:
S.Grimme, S.Ehrlich, L.Goerigk, J Comput Chem, (2011), 32, 1456–1465 
S.Grimme, J.Antony, S.Ehrlich and H.Krieg, J.Chem.Phys., 132, (2010), 154104 
   

================================================================================

----- Orbital basis set information -----
Your calculation utilizes the basis: def2-SVP
   F. Weigend and R. Ahlrichs, Phys. Chem. Chem. Phys. 7, 3297 (2005).

----- AuxJ basis set information -----
Your calculation utilizes the auxiliary basis: def2/J
   F. Weigend, Phys. Chem. Chem. Phys. 8, 1057 (2006).

================================================================================
                                        WARNINGS
                       Please study these warnings very carefully!
================================================================================


INFO   : the flag for use of the SHARK integral package has been found!

================================================================================
                                       INPUT FILE
================================================================================
NAME = 5ZPuRE_ll_ad_2-3_4-5_hess_orca.inp
|  1> ! Freq PBE0 RIJCOSX D3BJ def2-SVP def2/J 
|  2> %output 
|  3> xyzfile=True 
|  4> end 
|  5> %scf 
|  6> maxiter 250 
|  7> end
|  8> %output
|  9> Print[P_Hirshfeld] = 1
| 10> end
| 11> % maxcore
| 12> 4000
| 13> %pal nprocs 8
| 14> end
| 15> *xyz 0 1
| 16> C    0.21691329   1.60460999  -0.32497021 
| 17> C   -1.04732083   1.27369177  -0.09473722 
| 18> C   -1.62831632  -0.03815331   0.20796981 
| 19> C   -0.13152271  -1.43969970   0.70397151 
| 20> C    0.91791491  -1.28631025  -0.29598329 
| 21> C    1.41785520   0.76284308  -0.32489174 
| 22> H    0.43087808   2.65044352  -0.53531113 
| 23> H   -1.78927335   2.06821229  -0.13872352 
| 24> H   -2.23949274  -0.06286165   1.09976819 
| 25> H   -2.09578334  -0.53005289  -0.63514457 
| 26> H    0.13238736  -1.17084313   1.71569032 
| 27> H   -0.73674022  -2.33441240   0.63385143 
| 28> H    1.89424474  -1.67355913  -0.03409577 
| 29> H    0.63258584  -1.48267876  -1.31865598 
| 30> H    2.01962098   0.84035436   0.57163014 
| 31> H    2.00616909   0.81871620  -1.23039797 
| 32> *
| 33> 
| 34>                          ****END OF INPUT****
================================================================================

                       ****************************
                       * Single Point Calculation *
                       ****************************

---------------------------------
CARTESIAN COORDINATES (ANGSTROEM)
---------------------------------
  C      0.216913    1.604610   -0.324970
  C     -1.047321    1.273692   -0.094737
  C     -1.628316   -0.038153    0.207970
  C     -0.131523   -1.439700    0.703972
  C      0.917915   -1.286310   -0.295983
  C      1.417855    0.762843   -0.324892
  H      0.430878    2.650444   -0.535311
  H     -1.789273    2.068212   -0.138724
  H     -2.239493   -0.062862    1.099768
  H     -2.095783   -0.530053   -0.635145
  H      0.132387   -1.170843    1.715690
  H     -0.736740   -2.334412    0.633851
  H      1.894245   -1.673559   -0.034096
  H      0.632586   -1.482679   -1.318656
  H      2.019621    0.840354    0.571630
  H      2.006169    0.818716   -1.230398

----------------------------
CARTESIAN COORDINATES (A.U.)
----------------------------
  NO LB      ZA    FRAG     MASS         X           Y           Z
   0 C     6.0000    0    12.011    0.409907    3.032273   -0.614105
   1 C     6.0000    0    12.011   -1.979150    2.406929   -0.179027
   2 C     6.0000    0    12.011   -3.077072   -0.072099    0.393006
   3 C     6.0000    0    12.011   -0.248542   -2.720638    1.330313
   4 C     6.0000    0    12.011    1.734608   -2.430774   -0.559327
   5 C     6.0000    0    12.011    2.679358    1.441565   -0.613956
   6 H     1.0000    0     1.008    0.814242    5.008612   -1.011591
   7 H     1.0000    0     1.008   -3.381237    3.908355   -0.262149
   8 H     1.0000    0     1.008   -4.232028   -0.118791    2.078261
   9 H     1.0000    0     1.008   -3.960457   -1.001655   -1.200249
  10 H     1.0000    0     1.008    0.250176   -2.212573    3.242185
  11 H     1.0000    0     1.008   -1.392237   -4.411400    1.197806
  12 H     1.0000    0     1.008    3.579604   -3.162568   -0.064432
  13 H     1.0000    0     1.008    1.195414   -2.801857   -2.491899
  14 H     1.0000    0     1.008    3.816531    1.588040    1.080224
  15 H     1.0000    0     1.008    3.791110    1.547149   -2.325115

--------------------------------
INTERNAL COORDINATES (ANGSTROEM)
--------------------------------
 C      0   0   0     0.000000000000     0.00000000     0.00000000
 C      1   0   0     1.326952149923     0.00000000     0.00000000
 C      2   1   0     1.466330392283   129.52563189     0.00000000
 C      3   2   1     2.109677956623   111.20882969    13.32866803
 C      4   3   2     1.457654706604   106.23650611   314.03519675
 C      1   2   3     1.466571855765   129.57041333   358.88567654
 H      1   2   3     1.088022061568   117.42679903   179.80719451
 H      2   1   3     1.087975731909   117.42533326   180.65167702
 H      3   2   1     1.081411794369   114.49507343   127.09602951
 H      3   2   1     1.082281141550   114.64152568   259.78418886
 H      4   3   2     1.079586648115   103.19821171    76.70042731
 H      4   3   2     1.082458255810    97.88587471   193.48284580
 H      5   4   3     1.082481734322   116.47050682   160.43302456
 H      5   4   3     1.079737329529   116.12664605   298.58747758
 H      6   1   2     1.082534772571   114.46575571   258.49410468
 H      6   1   2     1.081284685582   114.57207351   125.95965959

---------------------------
INTERNAL COORDINATES (A.U.)
---------------------------
 C      0   0   0     0.000000000000     0.00000000     0.00000000
 C      1   0   0     2.507576156172     0.00000000     0.00000000
 C      2   1   0     2.770962863260   129.52563189     0.00000000
 C      3   2   1     3.986713568788   111.20882969    13.32866803
 C      4   3   2     2.754568193303   106.23650611   314.03519675
 C      1   2   3     2.771419163113   129.57041333   358.88567654
 H      1   2   3     2.056063724028   117.42679903   179.80719451
 H      2   1   3     2.055976173661   117.42533326   180.65167702
 H      3   2   1     2.043572129350   114.49507343   127.09602951
 H      3   2   1     2.045214957437   114.64152568   259.78418886
 H      4   3   2     2.040123102775   103.19821171    76.70042731
 H      4   3   2     2.045549654883    97.88587471   193.48284580
 H      5   4   3     2.045594022841   116.47050682   160.43302456
 H      5   4   3     2.040407849381   116.12664605   298.58747758
 H      6   1   2     2.045694250606   114.46575571   258.49410468
 H      6   1   2     2.043331928553   114.57207351   125.95965959

---------------------
BASIS SET INFORMATION
---------------------
There are 2 groups of distinct atoms

 Group   1 Type C   : 7s4p1d contracted to 3s2p1d pattern {511/31/1}
 Group   2 Type H   : 4s1p contracted to 2s1p pattern {31/1}

Atom   0C    basis set group =>   1
Atom   1C    basis set group =>   1
Atom   2C    basis set group =>   1
Atom   3C    basis set group =>   1
Atom   4C    basis set group =>   1
Atom   5C    basis set group =>   1
Atom   6H    basis set group =>   2
Atom   7H    basis set group =>   2
Atom   8H    basis set group =>   2
Atom   9H    basis set group =>   2
Atom  10H    basis set group =>   2
Atom  11H    basis set group =>   2
Atom  12H    basis set group =>   2
Atom  13H    basis set group =>   2
Atom  14H    basis set group =>   2
Atom  15H    basis set group =>   2
---------------------------------
AUXILIARY/J BASIS SET INFORMATION
---------------------------------
There are 2 groups of distinct atoms

 Group   1 Type C   : 12s5p4d2f1g contracted to 6s4p3d1f1g pattern {711111/2111/211/2/1}
 Group   2 Type H   : 5s2p1d contracted to 3s1p1d pattern {311/2/1}

Atom   0C    basis set group =>   1
Atom   1C    basis set group =>   1
Atom   2C    basis set group =>   1
Atom   3C    basis set group =>   1
Atom   4C    basis set group =>   1
Atom   5C    basis set group =>   1
Atom   6H    basis set group =>   2
Atom   7H    basis set group =>   2
Atom   8H    basis set group =>   2
Atom   9H    basis set group =>   2
Atom  10H    basis set group =>   2
Atom  11H    basis set group =>   2
Atom  12H    basis set group =>   2
Atom  13H    basis set group =>   2
Atom  14H    basis set group =>   2
Atom  15H    basis set group =>   2


           ************************************************************
           *        Program running with 8 parallel MPI-processes     *
           *              working on a common directory               *
           ************************************************************
------------------------------------------------------------------------------
                           ORCA GTO INTEGRAL CALCULATION
                           -- RI-GTO INTEGRALS CHOSEN --
------------------------------------------------------------------------------
------------------------------------------------------------------------------
                   ___                                                        
                  /   \      - P O W E R E D   B Y -                         
                 /     \                                                     
                 |  |  |   _    _      __       _____    __    __             
                 |  |  |  | |  | |    /  \     |  _  \  |  |  /  |          
                  \  \/   | |  | |   /    \    | | | |  |  | /  /          
                 / \  \   | |__| |  /  /\  \   | |_| |  |  |/  /          
                |  |  |   |  __  | /  /__\  \  |    /   |      \           
                |  |  |   | |  | | |   __   |  |    \   |  |\   \          
                \     /   | |  | | |  |  |  |  | |\  \  |  | \   \       
                 \___/    |_|  |_| |__|  |__|  |_| \__\ |__|  \__/        
                                                                              
                      - O R C A' S   B I G   F R I E N D -                    
                                      &                                       
                       - I N T E G R A L  F E E D E R -                       
                                                                              
 v1 FN, 2020, v2 2021                                                         
------------------------------------------------------------------------------


Reading SHARK input file 5ZPuRE_ll_ad_2-3_4-5_hess_orca.SHARKINP.tmp ... ok
----------------------
SHARK INTEGRAL PACKAGE
----------------------

Number of atoms                             ...     16
Number of basis functions                   ...    134
Number of shells                            ...     66
Maximum angular momentum                    ...      2
Integral batch strategy                     ... SHARK/LIBINT Hybrid
RI-J (if used) integral strategy            ... SPLIT-RIJ (Revised 2003 algorithm where possible)
Printlevel                                  ...      1
Contraction scheme used                     ... SEGMENTED contraction
Coulomb Range Separation                    ... NOT USED
Exchange Range Separation                   ... NOT USED
Finite Nucleus Model                        ... NOT USED
Auxiliary Coulomb fitting basis             ... AVAILABLE
   # of basis functions in Aux-J            ...    404
   # of shells in Aux-J                     ...    140
   Maximum angular momentum in Aux-J        ...      4
Auxiliary J/K fitting basis                 ... NOT available
Auxiliary Correlation fitting basis         ... NOT available
Auxiliary 'external' fitting basis          ... NOT available
Integral threshold                          ...     1.000000e-10
Primitive cut-off                           ...     1.000000e-11
Primitive pair pre-selection threshold      ...     1.000000e-11

Calculating pre-screening integrals         ... done (  0.0 sec) Dimension = 66
Organizing shell pair data                  ... done (  0.0 sec)
Shell pair information
Total number of shell pairs                 ...      2211
Shell pairs after pre-screening             ...      2165
Total number of primitive shell pairs       ...      7611
Primitive shell pairs kept                  ...      5714
          la=0 lb=0:    726 shell pairs
          la=1 lb=0:    812 shell pairs
          la=1 lb=1:    246 shell pairs
          la=2 lb=0:    228 shell pairs
          la=2 lb=1:    132 shell pairs
          la=2 lb=2:     21 shell pairs

Calculating one electron integrals          ... done (  0.0 sec)
Calculating RI/J V-Matrix + Cholesky decomp.... done (  0.1 sec)
Calculating Nuclear repulsion               ... done (  0.0 sec) ENN=    221.534603569541 Eh

SHARK setup successfully completed in   0.5 seconds

Maximum memory used throughout the entire GTOINT-calculation: 10.8 MB


           ************************************************************
           *        Program running with 8 parallel MPI-processes     *
           *              working on a common directory               *
           ************************************************************
-------------------------------------------------------------------------------
                                 ORCA SCF
-------------------------------------------------------------------------------

------------
SCF SETTINGS
------------
Hamiltonian:
 Density Functional     Method          .... DFT(GTOs)
 Exchange Functional    Exchange        .... PBE
   PBE kappa parameter   XKappa         ....  0.804000
   PBE mue parameter    XMuePBE         ....  0.219520
 Correlation Functional Correlation     .... PBE
   PBE beta parameter  CBetaPBE         ....  0.066725
 LDA part of GGA corr.  LDAOpt          .... PW91-LDA
 Gradients option       PostSCFGGA      .... off
 Hybrid DFT is turned on
   Fraction HF Exchange ScalHFX         ....  0.250000
   Scaling of DF-GGA-X  ScalDFX         ....  0.750000
   Scaling of DF-GGA-C  ScalDFC         ....  1.000000
   Scaling of DF-LDA-C  ScalLDAC        ....  1.000000
   Perturbative correction              ....  0.000000
   Density functional embedding theory  .... OFF
   NL short-range parameter             ....  6.900000
 RI-approximation to the Coulomb term is turned on
   Number of AuxJ basis functions       .... 404
   RIJ-COSX (HFX calculated with COS-X)).... on


General Settings:
 Integral files         IntName         .... 5ZPuRE_ll_ad_2-3_4-5_hess_orca
 Hartree-Fock type      HFTyp           .... RHF
 Total Charge           Charge          ....    0
 Multiplicity           Mult            ....    1
 Number of Electrons    NEL             ....   46
 Basis Dimension        Dim             ....  134
 Nuclear Repulsion      ENuc            ....    221.5346035695 Eh

Convergence Acceleration:
 DIIS                   CNVDIIS         .... on
   Start iteration      DIISMaxIt       ....    12
   Startup error        DIISStart       ....  0.200000
   # of expansion vecs  DIISMaxEq       ....     5
   Bias factor          DIISBfac        ....   1.050
   Max. coefficient     DIISMaxC        ....  10.000
 Trust-Rad. Augm. Hess. CNVTRAH         .... auto
   Auto Start mean grad. ratio tolernc. ....  1.125000
   Auto Start start iteration           ....    20
   Auto Start num. interpolation iter.  ....    10
   Max. Number of Micro iterations      ....    16
   Max. Number of Macro iterations      .... Maxiter - #DIIS iter
   Number of Davidson start vectors     ....     2
   Converg. threshold I  (grad. norm)   ....   5.000e-05
   Converg. threshold II (energy diff.) ....   1.000e-06
   Grad. Scal. Fac. for Micro threshold ....   0.100
   Minimum threshold for Micro iter.    ....   0.010
   NR start threshold (gradient norm)   ....   0.001
   Initial trust radius                 ....   0.400
   Minimum AH scaling param. (alpha)    ....   1.000
   Maximum AH scaling param. (alpha)    .... 1000.000
   Orbital update algorithm             .... Taylor
   White noise on init. David. guess    .... on
   Maximum white noise                  ....   0.010
   Quad. conv. algorithm                .... NR
 SOSCF                  CNVSOSCF        .... on
   Start iteration      SOSCFMaxIt      ....   150
   Startup grad/error   SOSCFStart      ....  0.003300
 Level Shifting         CNVShift        .... on
   Level shift para.    LevelShift      ....    0.2500
   Turn off err/grad.   ShiftErr        ....    0.0010
 Zerner damping         CNVZerner       .... off
 Static damping         CNVDamp         .... on
   Fraction old density DampFac         ....    0.7000
   Max. Damping (<1)    DampMax         ....    0.9800
   Min. Damping (>=0)   DampMin         ....    0.0000
   Turn off err/grad.   DampErr         ....    0.1000
 Fernandez-Rico         CNVRico         .... off

SCF Procedure:
 Maximum # iterations   MaxIter         ....   250
 SCF integral mode      SCFMode         .... Direct
   Integral package                     .... SHARK and LIBINT hybrid scheme
 Reset frequency        DirectResetFreq ....    20
 Integral Threshold     Thresh          ....  1.000e-10 Eh
 Primitive CutOff       TCut            ....  1.000e-11 Eh

Convergence Tolerance:
 Convergence Check Mode ConvCheckMode   .... Total+1el-Energy
 Convergence forced     ConvForced      .... 0
 Energy Change          TolE            ....  1.000e-06 Eh
 1-El. energy change                    ....  1.000e-03 Eh
 Orbital Gradient       TolG            ....  5.000e-05
 Orbital Rotation angle TolX            ....  5.000e-05
 DIIS Error             TolErr          ....  1.000e-06


Diagonalization of the overlap matrix:
Smallest eigenvalue                        ... 1.401e-03
Time for diagonalization                   ...    0.043 sec
Threshold for overlap eigenvalues          ... 1.000e-08
Number of eigenvalues below threshold      ... 0
Time for construction of square roots      ...    0.002 sec
Total time needed                          ...    0.045 sec

Time for model grid setup =    0.176 sec

------------------------------
INITIAL GUESS: MODEL POTENTIAL
------------------------------
Loading Hartree-Fock densities                     ... done
Calculating cut-offs                               ... done
Initializing the effective Hamiltonian             ... done
Setting up the integral package (SHARK)            ... done
Starting the Coulomb interaction                   ... done (   0.1 sec)
Reading the grid                                   ... done
Mapping shells                                     ... done
Starting the XC term evaluation                    ... done (   0.0 sec)
  promolecular density results
     # of electrons  =     45.994773468
     EX              =    -33.506571457
     EC              =     -1.462830456
     EX+EC           =    -34.969401912
Transforming the Hamiltonian                       ... done (   0.0 sec)
Diagonalizing the Hamiltonian                      ... done (   0.0 sec)
Back transforming the eigenvectors                 ... done (   0.0 sec)
Now organizing SCF variables                       ... done
                      ------------------
                      INITIAL GUESS DONE (   0.3 sec)
                      ------------------
-------------------
DFT GRID GENERATION
-------------------

General Integration Accuracy     IntAcc      ... 4.388
Radial Grid Type                 RadialGrid  ... OptM3 with GC (2021)
Angular Grid (max. ang.)         AngularGrid ... 4 (Lebedev-302)
Angular grid pruning method      GridPruning ... 4 (adaptive)
Weight generation scheme         WeightScheme... Becke
Basis function cutoff            BFCut       ... 1.0000e-10
Integration weight cutoff        WCut        ... 1.0000e-14
Angular grids for H and He will be reduced by one unit
Partially contracted basis set               ... off
Rotationally invariant grid construction     ... off

Total number of grid points                  ...    68344
Total number of batches                      ...     1077
Average number of points per batch           ...       63
Average number of grid points per atom       ...     4272
Time for grid setup =    0.323 sec

--------------------
COSX GRID GENERATION
--------------------

GRIDX 1
-------
General Integration Accuracy     IntAcc      ... 3.816
Radial Grid Type                 RadialGrid  ... OptM3 with GC (2021)
Angular Grid (max. ang.)         AngularGrid ... 1 (Lebedev-50)
Angular grid pruning method      GridPruning ... 4 (adaptive)
Weight generation scheme         WeightScheme... Becke
Basis function cutoff            BFCut       ... 1.0000e-10
Integration weight cutoff        WCut        ... 1.0000e-14
Angular grids for H and He will be reduced by one unit
Partially contracted basis set               ... on
Rotationally invariant grid construction     ... off

Total number of grid points                  ...     8779
Total number of batches                      ...      146
Average number of points per batch           ...       60
Average number of grid points per atom       ...      549
UseSFitting                                  ... on

GRIDX 2
-------
General Integration Accuracy     IntAcc      ... 4.020
Radial Grid Type                 RadialGrid  ... OptM3 with GC (2021)
Angular Grid (max. ang.)         AngularGrid ... 2 (Lebedev-110)
Angular grid pruning method      GridPruning ... 4 (adaptive)
Weight generation scheme         WeightScheme... Becke
Basis function cutoff            BFCut       ... 1.0000e-10
Integration weight cutoff        WCut        ... 1.0000e-14
Angular grids for H and He will be reduced by one unit
Partially contracted basis set               ... on
Rotationally invariant grid construction     ... off

Total number of grid points                  ...    18416
Total number of batches                      ...      294
Average number of points per batch           ...       62
Average number of grid points per atom       ...     1151
UseSFitting                                  ... on

GRIDX 3
-------
General Integration Accuracy     IntAcc      ... 4.338
Radial Grid Type                 RadialGrid  ... OptM3 with GC (2021)
Angular Grid (max. ang.)         AngularGrid ... 3 (Lebedev-194)
Angular grid pruning method      GridPruning ... 4 (adaptive)
Weight generation scheme         WeightScheme... Becke
Basis function cutoff            BFCut       ... 1.0000e-10
Integration weight cutoff        WCut        ... 1.0000e-14
Angular grids for H and He will be reduced by one unit
Partially contracted basis set               ... on
Rotationally invariant grid construction     ... off

Total number of grid points                  ...    40295
Total number of batches                      ...      638
Average number of points per batch           ...       63
Average number of grid points per atom       ...     2518
UseSFitting                                  ... on

Time for X-Grid setup             =    0.222 sec

--------------
SCF ITERATIONS
--------------
ITER       Energy         Delta-E        Max-DP      RMS-DP      [F,P]     Damp
               ***  Starting incremental Fock matrix formation  ***
  0   -233.9212001033   0.000000000000 0.04970032  0.00195136  0.1222819 0.7000
  1   -233.9798832305  -0.058683127197 0.03244032  0.00143569  0.0683545 0.7000
                               ***Turning on DIIS***
  2   -234.0070733822  -0.027190151731 0.05256407  0.00267060  0.0316065 0.0000
  3   -234.0461458815  -0.039072499317 0.02257199  0.00105911  0.0373586 0.0000
  4   -234.0557044789  -0.009558597394 0.00429204  0.00022041  0.0055980 0.0000
                      *** Initiating the SOSCF procedure ***
                           *** Shutting down DIIS ***
                      *** Re-Reading the Fockian *** 
                      *** Removing any level shift *** 
ITER      Energy       Delta-E        Grad      Rot      Max-DP    RMS-DP
  5   -234.05601223  -0.0003077515  0.000486  0.000486  0.001546  0.000079
               *** Restarting incremental Fock matrix formation ***
  6   -234.05606770  -0.0000554735  0.000221  0.000774  0.001010  0.000052
  7   -234.05606836  -0.0000006587  0.000296  0.000536  0.000507  0.000017
  8   -234.05606960  -0.0000012339  0.000110  0.000201  0.000287  0.000012
  9   -234.05606957   0.0000000264  0.000065  0.000070  0.000143  0.000006
                 **** Energy Check signals convergence ****
              ***Rediagonalizing the Fockian in SOSCF/NRSCF***

               *****************************************************
               *                     SUCCESS                       *
               *           SCF CONVERGED AFTER  10 CYCLES          *
               *****************************************************

Old exchange energy                            =     -8.598818497 Eh
New exchange energy                            =     -8.598807815 Eh
Exchange energy change after final integration =      0.000010682 Eh
Total energy after final integration           =   -234.056059095 Eh
Final COS-X integration done in                =     0.715 sec

----------------
TOTAL SCF ENERGY
----------------

Total Energy       :         -234.05605910 Eh           -6368.98916 eV

Components:
Nuclear Repulsion  :          221.53460357 Eh            6028.26303 eV
Electronic Energy  :         -455.59066266 Eh          -12397.25220 eV
One Electron Energy:         -752.51100731 Eh          -20476.86553 eV
Two Electron Energy:          296.92034465 Eh            8079.61334 eV
Max COSX asymmetry :            0.00000313 Eh               0.00009 eV

Virial components:
Potential Energy   :         -465.08449029 Eh          -12655.59238 eV
Kinetic Energy     :          231.02843119 Eh            6286.60322 eV
Virial Ratio       :            2.01310500


DFT components:
N(Alpha)           :       22.999968761835 electrons
N(Beta)            :       22.999968761835 electrons
N(Total)           :       45.999937523669 electrons
E(X)               :      -25.693703290251 Eh       
E(C)               :       -1.485792936379 Eh       
E(XC)              :      -27.179496226630 Eh       
DFET-embed. en.    :        0.000000000000 Eh       

---------------
SCF CONVERGENCE
---------------

  Last Energy change         ...   -2.0680e-07  Tolerance :   1.0000e-06
  Last MAX-Density change    ...    2.2204e-15  Tolerance :   1.0000e-05
  Last RMS-Density change    ...    4.7131e-17  Tolerance :   1.0000e-06
  Last Orbital Gradient      ...    6.3492e-06  Tolerance :   5.0000e-05
  Last Orbital Rotation      ...    8.1239e-06  Tolerance :   5.0000e-05

             **** THE GBW FILE WAS UPDATED (5ZPuRE_ll_ad_2-3_4-5_hess_orca.gbw) ****
             **** DENSITY 5ZPuRE_ll_ad_2-3_4-5_hess_orca.scfp WAS UPDATED ****
             **** ENERGY FILE WAS UPDATED (5ZPuRE_ll_ad_2-3_4-5_hess_orca.en.tmp) ****
             **** THE GBW FILE WAS UPDATED (5ZPuRE_ll_ad_2-3_4-5_hess_orca.gbw) ****
             **** DENSITY 5ZPuRE_ll_ad_2-3_4-5_hess_orca.scfp WAS UPDATED ****
----------------
ORBITAL ENERGIES
----------------

  NO   OCC          E(Eh)            E(eV) 
   0   2.0000     -10.246966      -278.8341 
   1   2.0000     -10.246711      -278.8272 
   2   2.0000     -10.244305      -278.7617 
   3   2.0000     -10.244281      -278.7610 
   4   2.0000     -10.227011      -278.2911 
   5   2.0000     -10.226183      -278.2686 
   6   2.0000      -0.813972       -22.1493 
   7   2.0000      -0.756417       -20.5831 
   8   2.0000      -0.725946       -19.7540 
   9   2.0000      -0.640202       -17.4208 
  10   2.0000      -0.595650       -16.2085 
  11   2.0000      -0.517893       -14.0926 
  12   2.0000      -0.481780       -13.1099 
  13   2.0000      -0.460156       -12.5215 
  14   2.0000      -0.426841       -11.6149 
  15   2.0000      -0.426224       -11.5981 
  16   2.0000      -0.422611       -11.4998 
  17   2.0000      -0.403725       -10.9859 
  18   2.0000      -0.379286       -10.3209 
  19   2.0000      -0.364254        -9.9119 
  20   2.0000      -0.284743        -7.7483 
  21   2.0000      -0.261328        -7.1111 
  22   2.0000      -0.227173        -6.1817 
  23   0.0000       0.000376         0.0102 
  24   0.0000       0.039489         1.0746 
  25   0.0000       0.062218         1.6930 
  26   0.0000       0.074057         2.0152 
  27   0.0000       0.107448         2.9238 
  28   0.0000       0.108476         2.9518 
  29   0.0000       0.122034         3.3207 
  30   0.0000       0.143176         3.8960 
  31   0.0000       0.153551         4.1783 
  32   0.0000       0.169277         4.6063 
  33   0.0000       0.170419         4.6373 
  34   0.0000       0.178162         4.8480 
  35   0.0000       0.190630         5.1873 
  36   0.0000       0.262352         7.1390 
  37   0.0000       0.281498         7.6599 
  38   0.0000       0.341015         9.2795 
  39   0.0000       0.403400        10.9771 
  40   0.0000       0.403901        10.9907 
  41   0.0000       0.437792        11.9129 
  42   0.0000       0.442752        12.0479 
  43   0.0000       0.467638        12.7251 
  44   0.0000       0.507500        13.8098 
  45   0.0000       0.520780        14.1711 
  46   0.0000       0.522125        14.2077 
  47   0.0000       0.544129        14.8065 
  48   0.0000       0.564013        15.3476 
  49   0.0000       0.588965        16.0266 
  50   0.0000       0.608324        16.5533 
  51   0.0000       0.628929        17.1140 
  52   0.0000       0.645527        17.5657 
  53   0.0000       0.652004        17.7419 
  54   0.0000       0.680626        18.5208 
  55   0.0000       0.684071        18.6145 
  56   0.0000       0.692663        18.8483 
  57   0.0000       0.700853        19.0712 
  58   0.0000       0.706097        19.2139 
  59   0.0000       0.712576        19.3902 
  60   0.0000       0.720487        19.6054 
  61   0.0000       0.730376        19.8745 
  62   0.0000       0.734807        19.9951 
  63   0.0000       0.734881        19.9971 
  64   0.0000       0.738495        20.0955 
  65   0.0000       0.742611        20.2075 
  66   0.0000       0.755127        20.5480 
  67   0.0000       0.839824        22.8528 
  68   0.0000       0.884288        24.0627 
  69   0.0000       0.973488        26.4900 
  70   0.0000       0.975659        26.5490 
  71   0.0000       1.061767        28.8921 
  72   0.0000       1.139519        31.0079 
  73   0.0000       1.166206        31.7341 
  74   0.0000       1.218738        33.1636 
  75   0.0000       1.256508        34.1913 
  76   0.0000       1.262545        34.3556 
  77   0.0000       1.269247        34.5380 
  78   0.0000       1.302891        35.4535 
  79   0.0000       1.447390        39.3855 
  80   0.0000       1.496888        40.7324 
  81   0.0000       1.548369        42.1333 
  82   0.0000       1.557462        42.3807 
  83   0.0000       1.578635        42.9568 
  84   0.0000       1.609384        43.7936 
  85   0.0000       1.657926        45.1144 
  86   0.0000       1.686542        45.8931 
  87   0.0000       1.702426        46.3254 
  88   0.0000       1.748442        47.5775 
  89   0.0000       1.753956        47.7276 
  90   0.0000       1.776154        48.3316 
  91   0.0000       1.785211        48.5781 
  92   0.0000       1.807741        49.1911 
  93   0.0000       1.824516        49.6476 
  94   0.0000       1.852399        50.4063 
  95   0.0000       1.879262        51.1373 
  96   0.0000       1.901088        51.7312 
  97   0.0000       1.912448        52.0404 
  98   0.0000       1.931193        52.5504 
  99   0.0000       1.946720        52.9729 
 100   0.0000       1.957463        53.2653 
 101   0.0000       1.986173        54.0465 
 102   0.0000       2.012153        54.7535 
 103   0.0000       2.046585        55.6904 
 104   0.0000       2.061121        56.0860 
 105   0.0000       2.093732        56.9733 
 106   0.0000       2.109255        57.3957 
 107   0.0000       2.148769        58.4710 
 108   0.0000       2.160396        58.7874 
 109   0.0000       2.253860        61.3307 
 110   0.0000       2.266542        61.6758 
 111   0.0000       2.275654        61.9237 
 112   0.0000       2.352021        64.0017 
 113   0.0000       2.374433        64.6116 
 114   0.0000       2.393732        65.1368 
 115   0.0000       2.440041        66.3969 
 116   0.0000       2.447196        66.5916 
 117   0.0000       2.469279        67.1925 
 118   0.0000       2.485621        67.6372 
 119   0.0000       2.622335        71.3574 
 120   0.0000       2.668388        72.6105 
 121   0.0000       2.715549        73.8939 
 122   0.0000       2.723754        74.1171 
 123   0.0000       2.844357        77.3989 
 124   0.0000       2.865530        77.9750 
 125   0.0000       2.888739        78.6066 
 126   0.0000       2.905294        79.0571 
 127   0.0000       2.954289        80.3903 
 128   0.0000       2.979984        81.0895 
 129   0.0000       3.014241        82.0217 
 130   0.0000       3.031430        82.4894 
 131   0.0000       3.044526        82.8458 
 132   0.0000       3.115621        84.7803 
 133   0.0000       3.313828        90.1739 

                    ********************************
                    * MULLIKEN POPULATION ANALYSIS *
                    ********************************

-----------------------
MULLIKEN ATOMIC CHARGES
-----------------------
   0 C :   -0.090193
   1 C :   -0.089455
   2 C :   -0.071922
   3 C :   -0.095779
   4 C :   -0.095755
   5 C :   -0.071550
   6 H :    0.028655
   7 H :    0.028693
   8 H :    0.055401
   9 H :    0.062347
  10 H :    0.056219
  11 H :    0.054715
  12 H :    0.054629
  13 H :    0.056096
  14 H :    0.062091
  15 H :    0.055808
Sum of atomic charges:    0.0000000

--------------------------------
MULLIKEN REDUCED ORBITAL CHARGES
--------------------------------
  0 C s       :     3.116496  s :     3.116496
      pz      :     1.011335  p :     2.936251
      px      :     1.001483
      py      :     0.923433
      dz2     :     0.002643  d :     0.037446
      dxz     :     0.008826
      dyz     :     0.001677
      dx2y2   :     0.013749
      dxy     :     0.010552
  1 C s       :     3.115761  s :     3.115761
      pz      :     1.012678  p :     2.936252
      px      :     0.984915
      py      :     0.938658
      dz2     :     0.002994  d :     0.037442
      dxz     :     0.006807
      dyz     :     0.003600
      dx2y2   :     0.009204
      dxy     :     0.014837
  2 C s       :     3.099501  s :     3.099501
      pz      :     0.989739  p :     2.945449
      px      :     1.010953
      py      :     0.944757
      dz2     :     0.003971  d :     0.026972
      dxz     :     0.007601
      dyz     :     0.005249
      dx2y2   :     0.005040
      dxy     :     0.005111
  3 C s       :     3.145257  s :     3.145257
      pz      :     0.999303  p :     2.922457
      px      :     0.951743
      py      :     0.971410
      dz2     :     0.008965  d :     0.028065
      dxz     :     0.006572
      dyz     :     0.002307
      dx2y2   :     0.003735
      dxy     :     0.006487
  4 C s       :     3.144815  s :     3.144815
      pz      :     0.995773  p :     2.922857
      px      :     0.958626
      py      :     0.968459
      dz2     :     0.008630  d :     0.028083
      dxz     :     0.006818
      dyz     :     0.002885
      dx2y2   :     0.004370
      dxy     :     0.005379
  5 C s       :     3.098834  s :     3.098834
      pz      :     0.992981  p :     2.945736
      px      :     0.994140
      py      :     0.958615
      dz2     :     0.004736  d :     0.026979
      dxz     :     0.010130
      dyz     :     0.001684
      dx2y2   :     0.004755
      dxy     :     0.005675
  6 H s       :     0.947388  s :     0.947388
      pz      :     0.005372  p :     0.023957
      px      :     0.004328
      py      :     0.014257
  7 H s       :     0.947352  s :     0.947352
      pz      :     0.004958  p :     0.023956
      px      :     0.009190
      py      :     0.009808
  8 H s       :     0.920474  s :     0.920474
      pz      :     0.012176  p :     0.024124
      px      :     0.007595
      py      :     0.004353
  9 H s       :     0.913483  s :     0.913483
      pz      :     0.010903  p :     0.024170
      px      :     0.006420
      py      :     0.006847
 10 H s       :     0.920113  s :     0.920113
      pz      :     0.013343  p :     0.023668
      px      :     0.004785
      py      :     0.005540
 11 H s       :     0.921268  s :     0.921268
      pz      :     0.004475  p :     0.024017
      px      :     0.008253
      py      :     0.011288
 12 H s       :     0.921359  s :     0.921359
      pz      :     0.005020  p :     0.024012
      px      :     0.013085
      py      :     0.005907
 13 H s       :     0.920242  s :     0.920242
      pz      :     0.013813  p :     0.023662
      px      :     0.005101
      py      :     0.004748
 14 H s       :     0.913757  s :     0.913757
      pz      :     0.011956  p :     0.024152
      px      :     0.007547
      py      :     0.004649
 15 H s       :     0.920045  s :     0.920045
      pz      :     0.012141  p :     0.024147
      px      :     0.007323
      py      :     0.004683


                     *******************************
                     * LOEWDIN POPULATION ANALYSIS *
                     *******************************

----------------------
LOEWDIN ATOMIC CHARGES
----------------------
   0 C :   -0.059083
   1 C :   -0.059230
   2 C :   -0.039582
   3 C :   -0.037677
   4 C :   -0.037938
   5 C :   -0.039760
   6 H :    0.031845
   7 H :    0.031845
   8 H :    0.027691
   9 H :    0.029544
  10 H :    0.024149
  11 H :    0.023386
  12 H :    0.023326
  13 H :    0.024095
  14 H :    0.029537
  15 H :    0.027852

-------------------------------
LOEWDIN REDUCED ORBITAL CHARGES
-------------------------------
  0 C s       :     2.862276  s :     2.862276
      pz      :     0.984565  p :     3.101057
      px      :     1.078088
      py      :     1.038404
      dz2     :     0.006362  d :     0.095750
      dxz     :     0.017707
      dyz     :     0.003638
      dx2y2   :     0.037222
      dxy     :     0.030820
  1 C s       :     2.862188  s :     2.862188
      pz      :     0.985342  p :     3.101265
      px      :     1.076644
      py      :     1.039279
      dz2     :     0.006935  d :     0.095776
      dxz     :     0.014051
      dyz     :     0.007383
      dx2y2   :     0.026462
      dxy     :     0.040945
  2 C s       :     2.895037  s :     2.895037
      pz      :     1.062072  p :     3.079083
      px      :     1.004624
      py      :     1.012387
      dz2     :     0.010995  d :     0.065462
      dxz     :     0.017985
      dyz     :     0.013263
      dx2y2   :     0.010901
      dxy     :     0.012318
  3 C s       :     2.895761  s :     2.895761
      pz      :     1.056522  p :     3.073521
      px      :     1.009159
      py      :     1.007841
      dz2     :     0.021587  d :     0.068395
      dxz     :     0.017184
      dyz     :     0.005658
      dx2y2   :     0.007750
      dxy     :     0.016217
  4 C s       :     2.895754  s :     2.895754
      pz      :     1.064005  p :     3.073753
      px      :     1.054245
      py      :     0.955504
      dz2     :     0.021318  d :     0.068432
      dxz     :     0.019325
      dyz     :     0.005344
      dx2y2   :     0.011411
      dxy     :     0.011033
  5 C s       :     2.895111  s :     2.895111
      pz      :     1.066699  p :     3.079187
      px      :     1.038599
      py      :     0.973889
      dz2     :     0.013450  d :     0.065462
      dxz     :     0.025460
      dyz     :     0.002744
      dx2y2   :     0.010326
      dxy     :     0.013482
  6 H s       :     0.898193  s :     0.898193
      pz      :     0.016540  p :     0.069962
      px      :     0.012831
      py      :     0.040591
  7 H s       :     0.898206  s :     0.898206
      pz      :     0.015537  p :     0.069949
      px      :     0.024783
      py      :     0.029628
  8 H s       :     0.898995  s :     0.898995
      pz      :     0.034540  p :     0.073314
      px      :     0.024601
      py      :     0.014173
  9 H s       :     0.896998  s :     0.896998
      pz      :     0.031701  p :     0.073459
      px      :     0.020777
      py      :     0.020981
 10 H s       :     0.904123  s :     0.904123
      pz      :     0.039958  p :     0.071728
      px      :     0.015466
      py      :     0.016305
 11 H s       :     0.903692  s :     0.903692
      pz      :     0.012771  p :     0.072922
      px      :     0.024952
      py      :     0.035198
 12 H s       :     0.903764  s :     0.903764
      pz      :     0.014238  p :     0.072909
      px      :     0.038612
      py      :     0.020060
 13 H s       :     0.904206  s :     0.904206
      pz      :     0.040742  p :     0.071700
      px      :     0.014527
      py      :     0.016431
 14 H s       :     0.897084  s :     0.897084
      pz      :     0.034196  p :     0.073379
      px      :     0.022678
      py      :     0.016505
 15 H s       :     0.898756  s :     0.898756
      pz      :     0.034673  p :     0.073392
      px      :     0.022098
      py      :     0.016622


                      *****************************
                      * MAYER POPULATION ANALYSIS *
                      *****************************

  NA   - Mulliken gross atomic population
  ZA   - Total nuclear charge
  QA   - Mulliken gross atomic charge
  VA   - Mayer's total valence
  BVA  - Mayer's bonded valence
  FA   - Mayer's free valence

  ATOM       NA         ZA         QA         VA         BVA        FA
  0 C      6.0902     6.0000    -0.0902     4.0458     4.0458     0.0000
  1 C      6.0895     6.0000    -0.0895     4.0459     4.0459     0.0000
  2 C      6.0719     6.0000    -0.0719     3.9322     3.9322    -0.0000
  3 C      6.0958     6.0000    -0.0958     4.0064     4.0064     0.0000
  4 C      6.0958     6.0000    -0.0958     4.0061     4.0061     0.0000
  5 C      6.0716     6.0000    -0.0716     3.9318     3.9318    -0.0000
  6 H      0.9713     1.0000     0.0287     0.9800     0.9800     0.0000
  7 H      0.9713     1.0000     0.0287     0.9800     0.9800    -0.0000
  8 H      0.9446     1.0000     0.0554     0.9753     0.9753     0.0000
  9 H      0.9377     1.0000     0.0623     0.9746     0.9746     0.0000
 10 H      0.9438     1.0000     0.0562     0.9728     0.9728     0.0000
 11 H      0.9453     1.0000     0.0547     0.9681     0.9681     0.0000
 12 H      0.9454     1.0000     0.0546     0.9680     0.9680     0.0000
 13 H      0.9439     1.0000     0.0561     0.9727     0.9727     0.0000
 14 H      0.9379     1.0000     0.0621     0.9745     0.9745    -0.0000
 15 H      0.9442     1.0000     0.0558     0.9755     0.9755    -0.0000

  Mayer bond orders larger than 0.100000
B(  0-C ,  1-C ) :   1.9745 B(  0-C ,  5-C ) :   1.0518 B(  0-C ,  6-H ) :   0.9435 
B(  1-C ,  2-C ) :   1.0523 B(  1-C ,  7-H ) :   0.9436 B(  2-C ,  3-C ) :   0.9534 
B(  2-C ,  8-H ) :   0.9484 B(  2-C ,  9-H ) :   0.9456 B(  3-C ,  4-C ) :   1.1218 
B(  3-C , 10-H ) :   0.9620 B(  3-C , 11-H ) :   0.9518 B(  4-C ,  5-C ) :   0.9537 
B(  4-C , 12-H ) :   0.9518 B(  4-C , 13-H ) :   0.9619 B(  5-C , 14-H ) :   0.9455 
B(  5-C , 15-H ) :   0.9483 


------------------
HIRSHFELD ANALYSIS
------------------

Total integrated alpha density =     22.999968761
Total integrated beta density  =     22.999968761

  ATOM     CHARGE      SPIN    
   0 C   -0.046465    0.000000
   1 C   -0.046558    0.000000
   2 C   -0.043757    0.000000
   3 C   -0.040950    0.000000
   4 C   -0.040987    0.000000
   5 C   -0.043805    0.000000
   6 H    0.028597    0.000000
   7 H    0.028606    0.000000
   8 H    0.026416    0.000000
   9 H    0.026680    0.000000
  10 H    0.025742    0.000000
  11 H    0.023917    0.000000
  12 H    0.023850    0.000000
  13 H    0.025653    0.000000
  14 H    0.026596    0.000000
  15 H    0.026528    0.000000

  TOTAL   0.000062    0.000000

-------
TIMINGS
-------

Total SCF time: 0 days 0 hours 0 min 6 sec 

Total time                  ....       6.592 sec
Sum of individual times     ....       6.358 sec  ( 96.5%)

Fock matrix formation       ....       5.328 sec  ( 80.8%)
  Split-RI-J                ....       0.707 sec  ( 13.3% of F)
  Chain of spheres X        ....       3.568 sec  ( 67.0% of F)
  XC integration            ....       1.011 sec  ( 19.0% of F)
    Basis function eval.    ....       0.390 sec  ( 38.6% of XC)
    Density eval.           ....       0.210 sec  ( 20.8% of XC)
    XC-Functional eval.     ....       0.090 sec  (  8.9% of XC)
    XC-Potential eval.      ....       0.187 sec  ( 18.5% of XC)
Diagonalization             ....       0.034 sec  (  0.5%)
Density matrix formation    ....       0.003 sec  (  0.0%)
Population analysis         ....       0.124 sec  (  1.9%)
Initial guess               ....       0.102 sec  (  1.5%)
Orbital Transformation      ....       0.000 sec  (  0.0%)
Orbital Orthonormalization  ....       0.000 sec  (  0.0%)
DIIS solution               ....       0.026 sec  (  0.4%)
SOSCF solution              ....       0.022 sec  (  0.3%)
Grid generation             ....       0.721 sec  ( 10.9%)

Maximum memory used throughout the entire SCF-calculation: 50.2 MB


-------------------------------------------------------------------------------
                          DFT DISPERSION CORRECTION                            
                                                                               
                              DFTD3 V3.1  Rev 1                                
                          USING Becke-Johnson damping                          
-------------------------------------------------------------------------------
The PBE0 functional is recognized
Active option DFTDOPT                   ...         4   

molecular C6(AA) [au] = 2234.603368 


            DFT-D V3
 parameters
 s6 scaling factor         :     1.0000 
 a1 scaling factor         :     0.4145 
 s8 scaling factor         :     1.2177 
 a2 scaling factor         :     4.8593 
 ad hoc parameters k1-k3   :    16.0000     1.3333    -4.0000 

 Edisp/kcal,au: -7.759462507589  -0.012365489288 
 E6   /kcal   :  -4.948340962 
 E8   /kcal   :  -2.811121546 
 % E8         :  36.228302452 

-------------------------   ----------------
Dispersion correction           -0.012365489
-------------------------   ----------------


-------------------------   --------------------
FINAL SINGLE POINT ENERGY      -234.068424584631
-------------------------   --------------------


                            ***************************************
                            *     ORCA property calculations      *
                            ***************************************

                                    ---------------------
                                    Active property flags
                                    ---------------------
   (+) Dipole Moment


------------------------------------------------------------------------------
                       ORCA ELECTRIC PROPERTIES CALCULATION
------------------------------------------------------------------------------

Dipole Moment Calculation                       ... on
Quadrupole Moment Calculation                   ... off
Polarizability Calculation                      ... off
GBWName                                         ... 5ZPuRE_ll_ad_2-3_4-5_hess_orca.gbw
Electron density                                ... 5ZPuRE_ll_ad_2-3_4-5_hess_orca.scfp
The origin for moment calculation is the CENTER OF MASS  = (-0.064410,  0.221987 -0.032562)

-------------
DIPOLE MOMENT
-------------
                                X             Y             Z
Electronic contribution:     -0.53287       1.83802      -0.26954
Nuclear contribution   :      0.55863      -1.92456       0.28232
                        -----------------------------------------
Total Dipole Moment    :      0.02576      -0.08654       0.01278
                        -----------------------------------------
Magnitude (a.u.)       :      0.09119
Magnitude (Debye)      :      0.23179



--------------------
Rotational spectrum 
--------------------
 
Rotational constants in cm-1:     0.142218     0.117713     0.070336 
Rotational constants in MHz :  4263.580474  3528.941998  2108.613679 

 Dipole components along the rotational axes: 
x,y,z [a.u.] :     0.091189     0.000802     0.000155 
x,y,z [Debye]:     0.231785     0.002038     0.000395 

 


           ************************************************************
           *        Program running with 8 parallel MPI-processes     *
           *              working on a common directory               *
           ************************************************************

-------------------------------------------------------------------------------
                               ORCA SCF HESSIAN
-------------------------------------------------------------------------------

                   --------- SHARK INITIALIZATION DONE ---------

Hessian of the Kohn-Sham DFT energy:
Kohn-Sham wavefunction type                      ... RKS
Hartree-Fock exchange scaling                    ...    0.250
Number of operators                              ...    1
Number of atoms                                  ...   16
Basis set dimensions                             ...  134
Integral neglect threshold                       ... 1.0e-10
Integral primitive cutoff                        ... 1.0e-11

Setting up DFT Hessian calculations              ... 

HESS GRID
---------

General Integration Accuracy     IntAcc      ... 4.629
Radial Grid Type                 RadialGrid  ... OptM3 with GC (2021)
Angular Grid (max. ang.)         AngularGrid ... 5 (Lebedev-434)
Angular grid pruning method      GridPruning ... 4 (adaptive)
Weight generation scheme         WeightScheme... Becke
Basis function cutoff            BFCut       ... 1.0000e-10
Integration weight cutoff        WCut        ... 1.0000e-14
Angular grids for H and He will be reduced by one unit
Partially contracted basis set               ... off
Rotationally invariant grid construction     ... off

Total number of grid points                  ...   105984
Total number of batches                      ...     1665
Average number of points per batch           ...       63
Average number of grid points per atom       ...     6624

Building densities                               ... done   (      0.0 sec)
Calculating rho(r) on the grid                   ... done   (      0.1 sec)
Building xc-kernel on the grid                   ... done   (      0.0 sec)
                                                     done   (      0.9 sec)

Nuclear repulsion Hessian  (SHARK)               ... done   (      0.0 sec)

----------------------------------------------
Forming right-hand sides of CP-SCF equations     ...
----------------------------------------------
One electron integral derivatives  (SHARK)       ... done   (      0.0 sec)
Transforming the overlap derivative matrices     ... done   (      0.0 sec)
Making the Q(x) pseudodensities                  ... done   (      0.0 sec)
Adding the E*S(x)*S(y) terms to the Hessian      ... done   (      0.0 sec)
Calculating energy weighted overlap derivatives  ... done   (      0.0 sec)
Two electron integral derivatives (SHARK-RI)     ... done   (      2.4 sec)
Exchange-correlation integral derivatives        ... done   (      7.6 sec)
tr(F(y)Q(x)) contribution to the Hessian         ... done   (      0.0 sec)
Response fock operator R(S(x)) (SHARK-RIJCOSX)   ... done   (      2.2 sec)
XC Response fock operator R(S(x))                ... done   (      2.5 sec)
tr(F(y)S(x)) contribution to the Hessian         ... done   (      0.0 sec)
Transforming and finalizing RHSs                 ... done   (      0.0 sec)

----------------------------------------------
Solving the CP-SCF equations (RIJCOSX)           ...
----------------------------------------------
     CP-SCF ITERATION   0:   2.6188e-01 (   1.1 sec   0/ 48 done)
     CP-SCF ITERATION   1:   4.6401e-02 (   1.1 sec   0/ 48 done)
     CP-SCF ITERATION   2:   1.0373e-02 (   1.1 sec   0/ 48 done)
     CP-SCF ITERATION   3:   3.1388e-03 (   1.2 sec  12/ 48 done)
     CP-SCF ITERATION   4:   1.2096e-03 (   0.9 sec  45/ 48 done)
     CP-SCF ITERATION   5:   3.1967e-04 (   0.3 sec  48/ 48 done)
                    *** THE CP-SCF HAS CONVERGED ***

                                                 ... done   (      5.9 sec)
Forming perturbed density Hessian contributions  ... done   (      0.0 sec)
2nd integral derivative contribs (SHARK-RI)      ... done   (      9.4 sec)
Exchange-correlation Hessian                     ... done   (      7.1 sec)
Dispersion correction in the Hessian             ... done   (      0.5 sec)
Dipole derivatives                               ... (center of mass: -0.064410,  0.221987 -0.032562)done   (      0.1 sec)

Total SCF Hessian time: 0 days 0 hours 0 min 39 sec 

Writing the Hessian file to the disk             ... done


Maximum memory used throughout the entire SCFHESS-calculation: 94.7 MB

-----------------------
VIBRATIONAL FREQUENCIES
-----------------------

Scaling factor for frequencies =  1.000000000  (already applied!)

   0:         0.00 cm**-1
   1:         0.00 cm**-1
   2:         0.00 cm**-1
   3:         0.00 cm**-1
   4:         0.00 cm**-1
   5:         0.00 cm**-1
   6:      -271.70 cm**-1 ***imaginary mode***
   7:      -261.71 cm**-1 ***imaginary mode***
   8:      -172.85 cm**-1 ***imaginary mode***
   9:        81.14 cm**-1
  10:       289.51 cm**-1
  11:       299.12 cm**-1
  12:       433.20 cm**-1
  13:       511.18 cm**-1
  14:       578.35 cm**-1
  15:       623.65 cm**-1
  16:       682.06 cm**-1
  17:       780.58 cm**-1
  18:       807.42 cm**-1
  19:       903.24 cm**-1
  20:       916.88 cm**-1
  21:       920.99 cm**-1
  22:       951.80 cm**-1
  23:       955.21 cm**-1
  24:      1003.45 cm**-1
  25:      1038.93 cm**-1
  26:      1054.66 cm**-1
  27:      1057.16 cm**-1
  28:      1127.33 cm**-1
  29:      1161.31 cm**-1
  30:      1205.93 cm**-1
  31:      1239.98 cm**-1
  32:      1373.55 cm**-1
  33:      1393.37 cm**-1
  34:      1393.89 cm**-1
  35:      1427.97 cm**-1
  36:      1447.24 cm**-1
  37:      1814.44 cm**-1
  38:      3222.66 cm**-1
  39:      3242.47 cm**-1
  40:      3253.98 cm**-1
  41:      3255.65 cm**-1
  42:      3258.22 cm**-1
  43:      3262.16 cm**-1
  44:      3353.60 cm**-1
  45:      3354.42 cm**-1
  46:      3363.40 cm**-1
  47:      3377.44 cm**-1


------------
NORMAL MODES
------------

These modes are the Cartesian displacements weighted by the diagonal matrix
M(i,i)=1/sqrt(m[i]) where m[i] is the mass of the displaced atom
Thus, these vectors are normalized but *not* orthogonal

                  0          1          2          3          4          5    
      0       0.000000   0.000000   0.000000   0.000000   0.000000   0.000000
      1       0.000000   0.000000   0.000000   0.000000   0.000000   0.000000
      2       0.000000   0.000000   0.000000   0.000000   0.000000   0.000000
      3       0.000000   0.000000   0.000000   0.000000   0.000000   0.000000
      4       0.000000   0.000000   0.000000   0.000000   0.000000   0.000000
      5       0.000000   0.000000   0.000000   0.000000   0.000000   0.000000
      6       0.000000   0.000000   0.000000   0.000000   0.000000   0.000000
      7       0.000000   0.000000   0.000000   0.000000   0.000000   0.000000
      8       0.000000   0.000000   0.000000   0.000000   0.000000   0.000000
      9       0.000000   0.000000   0.000000   0.000000   0.000000   0.000000
     10       0.000000   0.000000   0.000000   0.000000   0.000000   0.000000
     11       0.000000   0.000000   0.000000   0.000000   0.000000   0.000000
     12       0.000000   0.000000   0.000000   0.000000   0.000000   0.000000
     13       0.000000   0.000000   0.000000   0.000000   0.000000   0.000000
     14       0.000000   0.000000   0.000000   0.000000   0.000000   0.000000
     15       0.000000   0.000000   0.000000   0.000000   0.000000   0.000000
     16       0.000000   0.000000   0.000000   0.000000   0.000000   0.000000
     17       0.000000   0.000000   0.000000   0.000000   0.000000   0.000000
     18       0.000000   0.000000   0.000000   0.000000   0.000000   0.000000
     19       0.000000   0.000000   0.000000   0.000000   0.000000   0.000000
     20       0.000000   0.000000   0.000000   0.000000   0.000000   0.000000
     21       0.000000   0.000000   0.000000   0.000000   0.000000   0.000000
     22       0.000000   0.000000   0.000000   0.000000   0.000000   0.000000
     23       0.000000   0.000000   0.000000   0.000000   0.000000   0.000000
     24       0.000000   0.000000   0.000000   0.000000   0.000000   0.000000
     25       0.000000   0.000000   0.000000   0.000000   0.000000   0.000000
     26       0.000000   0.000000   0.000000   0.000000   0.000000   0.000000
     27       0.000000   0.000000   0.000000   0.000000   0.000000   0.000000
     28       0.000000   0.000000   0.000000   0.000000   0.000000   0.000000
     29       0.000000   0.000000   0.000000   0.000000   0.000000   0.000000
     30       0.000000   0.000000   0.000000   0.000000   0.000000   0.000000
     31       0.000000   0.000000   0.000000   0.000000   0.000000   0.000000
     32       0.000000   0.000000   0.000000   0.000000   0.000000   0.000000
     33       0.000000   0.000000   0.000000   0.000000   0.000000   0.000000
     34       0.000000   0.000000   0.000000   0.000000   0.000000   0.000000
     35       0.000000   0.000000   0.000000   0.000000   0.000000   0.000000
     36       0.000000   0.000000   0.000000   0.000000   0.000000   0.000000
     37       0.000000   0.000000   0.000000   0.000000   0.000000   0.000000
     38       0.000000   0.000000   0.000000   0.000000   0.000000   0.000000
     39       0.000000   0.000000   0.000000   0.000000   0.000000   0.000000
     40       0.000000   0.000000   0.000000   0.000000   0.000000   0.000000
     41       0.000000   0.000000   0.000000   0.000000   0.000000   0.000000
     42       0.000000   0.000000   0.000000   0.000000   0.000000   0.000000
     43       0.000000   0.000000   0.000000   0.000000   0.000000   0.000000
     44       0.000000   0.000000   0.000000   0.000000   0.000000   0.000000
     45       0.000000   0.000000   0.000000   0.000000   0.000000   0.000000
     46       0.000000   0.000000   0.000000   0.000000   0.000000   0.000000
     47       0.000000   0.000000   0.000000   0.000000   0.000000   0.000000
                  6          7          8          9         10         11    
      0      -0.005698  -0.012235   0.000878   0.000733  -0.035738  -0.029021
      1       0.057494   0.038470  -0.114781  -0.009668   0.010322  -0.045071
      2       0.063961  -0.060244  -0.028341  -0.012032  -0.197324   0.033870
      3      -0.021441  -0.012819  -0.056817   0.003329   0.016672  -0.049001
      4       0.067890   0.013455   0.086263  -0.003731   0.072700   0.039807
      5       0.030870  -0.077252  -0.056159   0.013386   0.179809   0.045719
      6      -0.134971  -0.040965  -0.230342  -0.016886   0.047255  -0.059739
      7       0.108027   0.074066   0.194119   0.017990   0.011084   0.035539
      8      -0.123654   0.088427  -0.008475   0.060592   0.000597  -0.024195
      9       0.115158   0.047102   0.240504  -0.090879  -0.014918   0.033233
     10      -0.167624  -0.119012  -0.158959  -0.046167  -0.050151   0.128162
     11       0.090991  -0.017148   0.050687  -0.104650  -0.010548  -0.075997
     12       0.021703  -0.007735   0.113751   0.094779   0.022756   0.105033
     13      -0.188459  -0.148631   0.268314   0.041509  -0.015923  -0.111695
     14       0.051304  -0.040717  -0.017467   0.105523   0.027873  -0.037779
     15       0.015089   0.040376  -0.093772   0.008058  -0.040441  -0.034370
     16       0.116764   0.139728  -0.281105   0.003745  -0.006287  -0.065598
     17      -0.101318   0.093301   0.065923  -0.063340   0.000852  -0.008919
     18      -0.003135  -0.098539   0.178835  -0.009455  -0.028753   0.035462
     19       0.112191   0.007052  -0.157914  -0.009838  -0.019560  -0.048920
     20       0.324871  -0.308942  -0.046951  -0.024546  -0.335199   0.077404
     21       0.058628  -0.041489   0.072902   0.013170   0.010839   0.000589
     22       0.156780  -0.025727   0.209059   0.006412   0.073745   0.088304
     23       0.245809  -0.350841  -0.094940   0.023661   0.316122   0.098876
     24      -0.259942   0.258462  -0.076790   0.155488  -0.228284   0.115587
     25       0.007535   0.114276   0.164820   0.057248  -0.196658  -0.049265
     26      -0.218961   0.296194   0.091238   0.183078  -0.199888   0.096233
     27       0.187404  -0.320696  -0.179734  -0.242209   0.355746  -0.230735
     28      -0.017213   0.079588   0.046068   0.088326   0.114590   0.130785
     29      -0.224476   0.243648   0.057527   0.147277  -0.235206   0.016516
     30       0.069182   0.071961   0.109542  -0.255713  -0.049573   0.061124
     31      -0.084518  -0.190183  -0.211858  -0.292726  -0.169813   0.467940
     32       0.076607  -0.006855   0.094207   0.002104   0.029039  -0.171271
     33      -0.086223  -0.101694   0.219509  -0.103430  -0.042264   0.079203
     34      -0.024924  -0.013598  -0.113991  -0.014628  -0.023638   0.073326
     35       0.070246  -0.078375  -0.192760  -0.405242  -0.130725   0.257238
     36       0.123307   0.050469   0.138104   0.066007   0.024722   0.090096
     37       0.077012  -0.017606   0.148262   0.154681   0.030860   0.054879
     38       0.060610  -0.077136  -0.245566   0.382050   0.093432   0.272720
     39       0.038869  -0.018891  -0.037254   0.369743   0.089633   0.322554
     40      -0.242766  -0.047749   0.257469  -0.100913  -0.066467  -0.403979
     41       0.060432  -0.054154   0.022016   0.057853   0.019802  -0.039896
     42       0.234750  -0.198399  -0.144202   0.166432  -0.355359  -0.172584
     43       0.181043  -0.077608  -0.125672   0.154950   0.000428  -0.218291
     44      -0.259158   0.269829   0.093732  -0.185437   0.215797   0.099018
     45      -0.241782   0.235280   0.026504  -0.149695   0.275887   0.102221
     46      -0.094747   0.194478  -0.142967  -0.087332  -0.002603   0.129886
     47      -0.280813   0.229072   0.147997  -0.174579   0.211827   0.095103
                 12         13         14         15         16         17    
      0       0.042146  -0.018937   0.051171   0.019144   0.014859   0.007291
      1      -0.175685  -0.046176   0.093373  -0.025932   0.036669  -0.047170
      2      -0.078549   0.059947   0.042875   0.052617  -0.055873  -0.032707
      3       0.053327  -0.043786   0.088895   0.001892   0.036050   0.019582
      4      -0.147648   0.041535  -0.036001  -0.043856  -0.036909  -0.038016
      5       0.122310   0.050297   0.062280  -0.040656  -0.043200   0.047821
      6      -0.287660  -0.001461  -0.024490  -0.038193  -0.029507   0.000514
      7      -0.013629   0.031198  -0.034791   0.012536   0.013101  -0.002281
      8      -0.000778   0.032920  -0.039794   0.066600   0.100272  -0.072443
      9      -0.032029   0.012571  -0.012797   0.006253  -0.017674   0.058953
     10       0.062734   0.046142  -0.096394   0.049655  -0.027020   0.054047
     11      -0.008955  -0.026702   0.026972   0.020201  -0.059934   0.019501
     12      -0.009693   0.038175  -0.061263  -0.031480  -0.025969  -0.072904
     13       0.073170  -0.038577   0.075665   0.032295  -0.002604   0.005967
     14      -0.008521  -0.013594   0.001545  -0.033644  -0.063121  -0.027270
     15       0.251071   0.018436  -0.036211   0.030628  -0.025746  -0.007406
     16       0.141055  -0.013601   0.005337   0.012603   0.000741   0.016053
     17      -0.021377   0.040479  -0.044146  -0.069215   0.104781   0.068679
     18      -0.169752  -0.055010  -0.058185  -0.030675   0.012413  -0.054872
     19      -0.138061  -0.154180   0.030615  -0.007371   0.057541  -0.033325
     20      -0.121288  -0.518381  -0.363867   0.101249   0.047673  -0.023054
     21       0.213312  -0.087044  -0.009809   0.035615   0.039418   0.059203
     22       0.008677  -0.031907  -0.145520  -0.018599  -0.027552  -0.003627
     23       0.177603  -0.527939  -0.333947  -0.117004   0.061614   0.013610
     24      -0.298063  -0.204231   0.007909  -0.301035  -0.324761   0.293259
     25      -0.024207  -0.160868  -0.073629   0.089618   0.240826  -0.230874
     26      -0.009604  -0.113966  -0.019098  -0.114158  -0.094505   0.118005
     27      -0.273130   0.250462  -0.184282   0.314202   0.219497  -0.113005
     28       0.121070   0.084084   0.264914  -0.220634  -0.143170   0.027033
     29      -0.086850  -0.142607  -0.128798   0.006282   0.055346  -0.025301
     30      -0.097484   0.055567  -0.072633   0.114897   0.276021   0.100345
     31       0.264787  -0.044049   0.237083  -0.309029   0.146815  -0.081989
     32      -0.044172  -0.014453  -0.045204   0.084958  -0.183796   0.042517
     33       0.133362  -0.064581   0.206351  -0.133922   0.078215  -0.383302
     34      -0.056738   0.099588  -0.257587   0.165195  -0.116525   0.373388
     35       0.106992  -0.058583   0.225835  -0.220926   0.265171  -0.124481
     36      -0.076390  -0.000392   0.021525   0.009884  -0.013281   0.122482
     37      -0.138142  -0.143157   0.362219   0.274268   0.215686   0.522060
     38      -0.077222  -0.028623   0.126216   0.163809   0.214331  -0.022600
     39      -0.065075   0.022950   0.064888   0.078383   0.322414  -0.051161
     40       0.276201   0.071739  -0.232958  -0.338425  -0.019603  -0.129729
     41      -0.033456  -0.031087   0.026421   0.009108  -0.158149  -0.004946
     42       0.145741   0.270418  -0.003191  -0.143119   0.110032   0.074628
     43       0.266988   0.038949  -0.335283  -0.343555   0.243914   0.067873
     44       0.038307  -0.137989  -0.039334   0.079269  -0.005810   0.007690
     45       0.282972  -0.247697  -0.035782   0.195871  -0.148166  -0.119420
     46       0.134406  -0.004703   0.064473   0.264064  -0.407007  -0.374986
     47       0.000474  -0.134441  -0.040812   0.056229   0.001588  -0.024104
                 18         19         20         21         22         23    
      0       0.026398   0.013985  -0.001120  -0.015557  -0.056360  -0.014828
      1       0.188483   0.086065   0.040244  -0.020008  -0.037044  -0.019396
      2      -0.014728   0.001061  -0.019566  -0.021581  -0.015297   0.055878
      3       0.120521  -0.057800  -0.019289  -0.023541  -0.069965  -0.018135
      4      -0.140493   0.062759   0.037841   0.006897   0.011299  -0.020213
      5       0.030313  -0.022040   0.012194  -0.021663   0.012657  -0.052931
      6      -0.116368  -0.073412  -0.030487   0.028985   0.069873   0.035503
      7      -0.026740  -0.039663  -0.036340   0.007456   0.002145   0.010556
      8       0.010895   0.025264  -0.043984   0.049947   0.007297  -0.034167
      9       0.051688  -0.012545   0.026137   0.023140   0.005465   0.001792
     10       0.122580  -0.008524   0.055507  -0.000138   0.001937   0.001554
     11      -0.012297  -0.025218   0.006963  -0.021364   0.008868   0.009340
     12       0.112727   0.013633  -0.054115   0.011226   0.006255   0.001948
     13      -0.075055   0.007675   0.027246   0.010921   0.003566   0.000897
     14       0.018458   0.024126  -0.014845  -0.026389   0.013353  -0.003033
     15      -0.112457   0.086472   0.038742   0.028668   0.071702   0.006030
     16      -0.037156  -0.000429  -0.005309   0.021629   0.028889   0.020063
     17       0.008228  -0.018834   0.039568   0.054926  -0.023030   0.027326
     18      -0.098536  -0.021882   0.026895  -0.007606  -0.120737  -0.141764
     19       0.199435   0.077047   0.027510  -0.005940   0.037214  -0.121124
     20      -0.058791  -0.099781  -0.065056   0.053611   0.287169  -0.570964
     21       0.020865  -0.030507  -0.041762  -0.020095  -0.170526   0.053994
     22      -0.227555   0.098776   0.022053   0.013320  -0.089092   0.082865
     23       0.002796   0.073457   0.053710   0.045210  -0.125049   0.629004
     24      -0.252106   0.124719   0.100672  -0.126609  -0.172366  -0.027983
     25       0.236342  -0.415561  -0.088355   0.082175   0.234574   0.307585
     26      -0.070616   0.148533   0.044152  -0.051869  -0.147834  -0.068538
     27      -0.177444   0.201248  -0.152909   0.064479  -0.208201  -0.076655
     28       0.110664  -0.417701  -0.011808   0.062927   0.459118  -0.015674
     29      -0.039457   0.099474   0.007347  -0.001787  -0.115128   0.043306
     30      -0.102748  -0.131304   0.368206  -0.520772   0.142278   0.027191
     31      -0.165076   0.139677  -0.390866   0.239185  -0.115419  -0.041363
     32       0.104135  -0.034415   0.040268   0.049787   0.008115   0.014701
     33      -0.090348  -0.013709   0.380815   0.194286   0.047398  -0.011686
     34       0.242938  -0.013219  -0.179235  -0.101750  -0.030765   0.010478
     35      -0.302337   0.026416  -0.125508  -0.211928   0.039773   0.002188
     36       0.064905   0.024004  -0.256322   0.083265   0.019839   0.016719
     37      -0.356878  -0.008521  -0.321439   0.070608   0.047189   0.045753
     38      -0.212574  -0.033323   0.241080  -0.206322   0.019854   0.006909
     39      -0.177963   0.018851  -0.043185  -0.333702   0.050191   0.029962
     40       0.107359   0.161880  -0.422369  -0.539622   0.181111   0.047421
     41       0.064125  -0.006617   0.066010   0.168002  -0.029581  -0.018332
     42      -0.093636   0.060509   0.120515   0.103932   0.003232   0.101961
     43      -0.212197  -0.467577   0.058780   0.014970  -0.416998  -0.277498
     44       0.006935   0.033627  -0.019155   0.005797   0.054052  -0.016506
     45      -0.076139   0.121577  -0.024720  -0.067764   0.087520  -0.118422
     46      -0.311796  -0.440309  -0.114480  -0.154713  -0.435548   0.039478
     47       0.018801  -0.020991  -0.008465  -0.015851  -0.037228  -0.050521
                 24         25         26         27         28         29    
      0      -0.028690   0.018448  -0.009898   0.017263   0.060187  -0.004653
      1       0.026016   0.111635   0.000272  -0.006832  -0.069874  -0.006824
      2      -0.003857   0.006580   0.087851   0.114798   0.015398   0.000370
      3      -0.010584  -0.071105  -0.018013   0.001842   0.013702   0.007604
      4      -0.036396   0.078078   0.017998  -0.044844   0.093253  -0.003212
      5       0.006529  -0.039746   0.075739  -0.113506  -0.004868   0.001145
      6       0.023950  -0.031178   0.019552   0.006994  -0.008660  -0.010001
      7       0.015621  -0.144946   0.002993   0.037847  -0.153946   0.014263
      8      -0.001358   0.044360  -0.068022   0.066935   0.022249  -0.006651
      9       0.053545  -0.013942  -0.001349   0.018853   0.027091  -0.125511
     10      -0.087674  -0.010245  -0.000386   0.004625  -0.012367  -0.024971
     11       0.002550   0.054526  -0.006850  -0.023183   0.000064  -0.038477
     12      -0.000713   0.021456  -0.001240  -0.019784   0.016751   0.116451
[...]
     31       0.247443  -0.067842  -0.018157   0.334898  -0.054986  -0.009248
     32      -0.334009   0.061593   0.004875  -0.139060   0.022270   0.007881
     33      -0.042687   0.016021   0.016148   0.045232  -0.016142  -0.044073
     34       0.096722  -0.029715  -0.012931  -0.006158   0.015712   0.038468
     35      -0.135205   0.062826   0.009906  -0.505324   0.079289   0.018245
     36      -0.024471   0.007111   0.006235   0.074304  -0.008569  -0.018657
     37       0.137735  -0.048861   0.021416  -0.104078   0.030299  -0.049105
     38       0.098830  -0.050911   0.005088  -0.490168   0.053758   0.029980
     39      -0.465715   0.091213  -0.015362   0.454025  -0.044172  -0.025157
     40       0.099954  -0.039643   0.013243  -0.143954   0.021151  -0.004407
     41       0.282223  -0.045483   0.000374  -0.067648   0.007325   0.006863
     42       0.011079  -0.117038   0.353552  -0.041866  -0.376815   0.212400
     43      -0.042489  -0.036517  -0.046922  -0.010334   0.060703  -0.028930
     44      -0.006047   0.069045  -0.245020   0.029167   0.291720  -0.207294
     45       0.018742  -0.076658   0.371398  -0.036894  -0.389692   0.209693
     46       0.173030  -0.108192  -0.045089   0.000292   0.060097  -0.035460
     47      -0.000556  -0.058097   0.244674  -0.027414  -0.290669   0.207268
                 36         37         38         39         40         41    
      0      -0.002536   0.571901  -0.011449   0.016364   0.000405   0.001324
      1      -0.001632   0.057445  -0.055926   0.052190   0.002057   0.012734
      2       0.000094  -0.086528   0.011316  -0.011417  -0.000421  -0.002497
      3       0.003171  -0.522428  -0.038889  -0.042744   0.000699  -0.001669
      4       0.000272  -0.229326   0.041806   0.037887  -0.000900  -0.001583
      5       0.000008   0.111176  -0.002261  -0.000949   0.000069   0.000409
      6      -0.002817   0.062041   0.003536   0.015729   0.003383   0.031560
      7       0.003332   0.066028   0.002754   0.008799   0.002826   0.017842
      8      -0.002983  -0.019324  -0.000872  -0.000325   0.000527   0.001252
      9      -0.088990  -0.014310   0.000522   0.000275   0.019665  -0.002168
     10      -0.037510  -0.001718  -0.000038  -0.000151   0.029585  -0.003628
     11       0.094752   0.006801  -0.000260  -0.000454  -0.025257   0.002891
     12       0.102872   0.013652   0.000407  -0.000109   0.036207  -0.005257
     13      -0.009565   0.004113   0.000252  -0.000193  -0.021814   0.003296
     14      -0.087976  -0.007215  -0.000313   0.000465  -0.019451   0.002592
     15       0.000193  -0.088569   0.004764  -0.019343   0.005582   0.053438
     16       0.005095   0.026381  -0.000617  -0.001122  -0.000261   0.003506
     17       0.001725   0.005906  -0.000216  -0.001323   0.001217   0.006277
     18       0.006417  -0.163455   0.132008  -0.118987  -0.004222  -0.023297
     19      -0.003138   0.285387   0.680714  -0.607132  -0.020822  -0.132962
     20       0.001188  -0.034315  -0.136684   0.121337   0.004462   0.027660
     21      -0.004482  -0.011996   0.468638   0.436168  -0.007519   0.003649
     22      -0.006688   0.326217  -0.512001  -0.474738   0.007937  -0.000459
     23       0.000614  -0.054768   0.028771   0.027188  -0.000078   0.000755
     24       0.047742   0.060524  -0.028706  -0.106813  -0.025991  -0.198694
     25      -0.004929   0.151338  -0.000007  -0.002078   0.000065  -0.007177
     26       0.028948  -0.023395   0.046407   0.167090   0.038517   0.304351
     27       0.029595   0.050096  -0.019096  -0.086030  -0.023049  -0.170076
     28       0.000158   0.098583  -0.020633  -0.094696  -0.027025  -0.189273
     29      -0.018909  -0.031464  -0.038482  -0.166024  -0.044597  -0.323809
     30       0.342736   0.001102   0.001026   0.001335   0.093330  -0.010341
     31       0.352044  -0.002006   0.001873   0.002407   0.103844  -0.011081
     32      -0.121037   0.004653   0.004855   0.007856   0.346919  -0.038405
     33      -0.007813   0.038068  -0.004423  -0.002404  -0.320422   0.035789
     34      -0.045994  -0.040250  -0.005424  -0.005129  -0.464844   0.048643
     35      -0.464579   0.016949  -0.000451  -0.000483  -0.045056   0.005456
     36      -0.005575  -0.009979  -0.006147   0.003588  -0.541532   0.071990
     37       0.093697  -0.057382   0.001792  -0.002427   0.206976  -0.024627
     38       0.460007  -0.001974  -0.001491   0.001365  -0.152237   0.020032
     39      -0.488121   0.000181   0.001437  -0.001535   0.113908  -0.015276
     40       0.138890  -0.003119   0.000407  -0.000749   0.064067  -0.008869
     41       0.048125  -0.003866   0.005117  -0.007307   0.379769  -0.050614
     42      -0.026240  -0.100155  -0.026995   0.123119  -0.039531  -0.337475
     43      -0.010267   0.061807  -0.004084   0.014978  -0.003414  -0.036682
     44       0.020596   0.010715  -0.044407   0.193113  -0.060890  -0.520154
     45      -0.035972  -0.129949  -0.027914   0.106977  -0.030699  -0.276493
     46      -0.037043   0.097844  -0.002415   0.008859  -0.003721  -0.020795
     47      -0.021926  -0.011416   0.048260  -0.177268   0.049337   0.444573
                 42         43         44         45         46         47    
      0      -0.007137   0.000626   0.000125   0.000006  -0.000144  -0.000128
      1      -0.022875   0.002153  -0.001311   0.000598  -0.000089  -0.000023
      2       0.004864  -0.000482   0.000232   0.000050   0.000002  -0.000137
      3       0.019806  -0.001774  -0.000089  -0.000718   0.000174  -0.000098
      4      -0.018915   0.001634   0.000329   0.001235   0.000018  -0.000079
      5       0.000780  -0.000044   0.000097  -0.000200   0.000020  -0.000129
      6       0.044801  -0.001987  -0.003845  -0.011386   0.000474   0.000552
      7       0.025853  -0.000709   0.007463   0.022004  -0.000814  -0.000092
      8       0.002211   0.000024   0.030150   0.089454  -0.003915  -0.000676
      9      -0.001805  -0.023259   0.000343  -0.001746  -0.027903  -0.031474
     10      -0.002683  -0.032637   0.000487  -0.002569  -0.037912  -0.040206
     11       0.001992   0.030812   0.000634  -0.003929  -0.046831  -0.050691
     12       0.002076   0.036781  -0.001749   0.002058   0.043492  -0.040597
     13      -0.001085  -0.021235   0.000039  -0.000093  -0.003586   0.002053
     14      -0.000881  -0.021643  -0.003023   0.003375   0.057313  -0.052433
     15      -0.031704   0.001972  -0.005062   0.001711  -0.000314   0.000469
     16      -0.001877   0.000496   0.000648  -0.000252   0.000140   0.000185
     17      -0.004029   0.000023   0.092722  -0.030864   0.003970  -0.000624
     18       0.049124  -0.004358   0.002033  -0.000701   0.000325  -0.000077
     19       0.252954  -0.023396   0.012330  -0.004559   0.003462  -0.000967
     20      -0.051050   0.004533  -0.002386   0.002426  -0.000948  -0.000523
     21      -0.197599   0.017093   0.002416   0.009088  -0.002027  -0.000702
     22       0.217428  -0.018881  -0.002540  -0.010626   0.002747   0.000859
     23      -0.011569   0.001246   0.001401  -0.000172   0.000100  -0.000719
     24      -0.280125   0.017163   0.135132   0.402642  -0.018641  -0.006112
     25      -0.011799  -0.001107   0.007915   0.021773  -0.000388   0.000687
     26       0.428163  -0.021802  -0.196212  -0.582815   0.024846   0.007688
     27      -0.242594   0.011065  -0.090503  -0.271139   0.014601   0.006052
     28      -0.271001   0.010967  -0.097120  -0.287408   0.013273   0.001231
     29      -0.460538   0.019399  -0.160481  -0.478958   0.025173   0.006786
     30      -0.007154  -0.101355  -0.002701   0.006235   0.134878   0.146430
     31      -0.007648  -0.109352  -0.001064   0.011597   0.140276   0.153672
     32      -0.024928  -0.381015  -0.008938   0.035118   0.524796   0.577087
     33       0.025678   0.341375  -0.000003   0.012699   0.210750   0.224267
     34       0.033340   0.490648  -0.000737   0.017536   0.308277   0.325996
     35       0.003549   0.047728  -0.000175   0.001496   0.021184   0.022187
     36      -0.026249  -0.507406   0.015909  -0.013484  -0.369880   0.333224
     37       0.008741   0.191404  -0.005417   0.005238   0.145283  -0.129827
     38      -0.006877  -0.141865   0.004008  -0.003744  -0.095328   0.085287
     39       0.005502   0.107057   0.005582  -0.007446  -0.158488   0.146491
     40       0.002725   0.065058   0.000937  -0.004867  -0.108318   0.100822
     41       0.016571   0.366605   0.023775  -0.030803  -0.573871   0.536794
     42       0.200502  -0.013468  -0.342752   0.114693  -0.017492   0.004654
     43       0.020969  -0.002255  -0.039231   0.013954  -0.004064   0.003782
     44       0.307769  -0.019758  -0.498394   0.166704  -0.025731   0.005259
     45       0.162651  -0.014434   0.397339  -0.132539   0.017961  -0.004930
     46       0.011454  -0.003753   0.033707  -0.011953   0.002805  -0.001537
     47      -0.259916   0.021381  -0.602156   0.200988  -0.026035   0.007606


-----------
IR SPECTRUM
-----------

 Mode   freq       eps      Int      T**2         TX        TY        TZ
       cm**-1   L/(mol*cm) km/mol    a.u.
----------------------------------------------------------------------------
  9:     81.14   0.000001    0.00  0.000003  (-0.000286  0.001619 -0.000588)
 10:    289.51   0.000056    0.28  0.000061  ( 0.001365 -0.007665  0.000013)
 11:    299.12   0.000604    3.05  0.000630  ( 0.015564  0.006849  0.018458)
 12:    433.20   0.000015    0.08  0.000011  (-0.001067  0.003049  0.000589)
 13:    511.18   0.005434   27.46  0.003317  (-0.003943 -0.009469 -0.056676)
 14:    578.35   0.000802    4.05  0.000433  (-0.006011 -0.004428 -0.019421)
 15:    623.65   0.000196    0.99  0.000098  ( 0.003019 -0.009392  0.000785)
 16:    682.06   0.000662    3.35  0.000303  ( 0.016803  0.004397 -0.001113)
 17:    780.58   0.000010    0.05  0.000004  (-0.001309  0.001256 -0.000880)
 18:    807.42   0.001176    5.94  0.000454  (-0.017300 -0.006973 -0.010320)
 19:    903.24   0.000050    0.25  0.000017  ( 0.001213 -0.003947  0.000523)
 20:    916.88   0.000816    4.12  0.000278  ( 0.004411 -0.015916  0.002188)
 21:    920.99   0.000118    0.60  0.000040  ( 0.003217  0.000034  0.005453)
 22:    951.80   0.000473    2.39  0.000155  (-0.011175 -0.002666  0.004804)
 23:    955.21   0.000053    0.27  0.000017  (-0.003896  0.000223  0.001493)
 24:   1003.45   0.000027    0.14  0.000008  ( 0.000763  0.000532  0.002735)
 25:   1038.93   0.000134    0.68  0.000040  ( 0.001713 -0.005906  0.001562)
 26:   1054.66   0.001764    8.91  0.000522  ( 0.001991 -0.003058 -0.022551)
 27:   1057.16   0.000054    0.27  0.000016  ( 0.001294 -0.003556  0.001250)
 28:   1127.33   0.002359   11.92  0.000653  ( 0.024548  0.006599 -0.002627)
 29:   1161.31   0.001480    7.48  0.000398  (-0.005336  0.019021 -0.002737)
 30:   1205.93   0.000000    0.00  0.000000  (-0.000271  0.000148 -0.000134)
 31:   1239.98   0.001792    9.06  0.000451  (-0.006046  0.020141 -0.002956)
 32:   1373.55   0.000806    4.07  0.000183  ( 0.012081  0.004062  0.004548)
 33:   1393.37   0.000613    3.10  0.000137  (-0.004404 -0.002906 -0.010461)
 34:   1393.89   0.000017    0.08  0.000004  ( 0.000562  0.000848  0.001647)
 35:   1427.97   0.000135    0.68  0.000029  ( 0.005153  0.001593 -0.000617)
 36:   1447.24   0.000018    0.09  0.000004  (-0.000595  0.001875 -0.000344)
 37:   1814.44   0.001331    6.72  0.000229  ( 0.004217 -0.014387  0.002027)
 38:   3222.66   0.000320    1.62  0.000031  (-0.005265 -0.001742  0.000449)
 39:   3242.47   0.005163   26.09  0.000497  (-0.006475  0.021112 -0.003044)
 40:   3253.98   0.004970   25.12  0.000477  ( 0.017301  0.002529 -0.013074)
 41:   3255.65   0.005084   25.69  0.000487  ( 0.020174  0.008890  0.001134)
 42:   3258.22   0.001450    7.33  0.000139  ( 0.007693 -0.008800  0.001496)
 43:   3262.16   0.004484   22.66  0.000429  ( 0.005253 -0.019751  0.003349)
 44:   3353.60   0.001414    7.15  0.000132  (-0.000877  0.000544  0.011426)
 45:   3354.42   0.000377    1.90  0.000035  (-0.001005  0.002342  0.005344)
 46:   3363.40   0.000177    0.89  0.000016  ( 0.001458 -0.003639  0.001018)
 47:   3377.44   0.002094   10.58  0.000193  (-0.006649 -0.003703 -0.011642)

* The epsilon (eps) is given for a Dirac delta lineshape.
** The dipole moment derivative (T) already includes vibrational overlap.

The first frequency considered to be a vibration is 9
The total number of vibrations considered is 39


--------------------------
THERMOCHEMISTRY AT 298.15K
--------------------------

Temperature         ... 298.15 K
Pressure            ... 1.00 atm
Total Mass          ... 82.15 AMU

Throughout the following assumptions are being made:
  (1) The electronic state is orbitally nondegenerate
  (2) There are no thermally accessible electronically excited states
  (3) Hindered rotations indicated by low frequency modes are not
      treated as such but are treated as vibrations and this may
      cause some error
  (4) All equations used are the standard statistical mechanics
      equations for an ideal gas
  (5) All vibrations are strictly harmonic

freq.      81.14  E(vib)   ...       0.48 
freq.     289.51  E(vib)   ...       0.27 
freq.     299.12  E(vib)   ...       0.26 
freq.     433.20  E(vib)   ...       0.17 
freq.     511.18  E(vib)   ...       0.14 
freq.     578.35  E(vib)   ...       0.11 
freq.     623.65  E(vib)   ...       0.09 
freq.     682.06  E(vib)   ...       0.08 
freq.     780.58  E(vib)   ...       0.05 
freq.     807.42  E(vib)   ...       0.05 
freq.     903.24  E(vib)   ...       0.03 
freq.     916.88  E(vib)   ...       0.03 
freq.     920.99  E(vib)   ...       0.03 
freq.     951.80  E(vib)   ...       0.03 
freq.     955.21  E(vib)   ...       0.03 
freq.    1003.45  E(vib)   ...       0.02 
freq.    1038.93  E(vib)   ...       0.02 
freq.    1054.66  E(vib)   ...       0.02 
freq.    1057.16  E(vib)   ...       0.02 
freq.    1127.33  E(vib)   ...       0.01 
freq.    1161.31  E(vib)   ...       0.01 
freq.    1205.93  E(vib)   ...       0.01 
freq.    1239.98  E(vib)   ...       0.01 
freq.    1373.55  E(vib)   ...       0.01 
freq.    1393.37  E(vib)   ...       0.00 
freq.    1393.89  E(vib)   ...       0.00 
freq.    1427.97  E(vib)   ...       0.00 
freq.    1447.24  E(vib)   ...       0.00 
freq.    1814.44  E(vib)   ...       0.00 
freq.    3222.66  E(vib)   ...       0.00 
freq.    3242.47  E(vib)   ...       0.00 
freq.    3253.98  E(vib)   ...       0.00 
freq.    3255.65  E(vib)   ...       0.00 
freq.    3258.22  E(vib)   ...       0.00 
freq.    3262.16  E(vib)   ...       0.00 
freq.    3353.60  E(vib)   ...       0.00 
freq.    3354.42  E(vib)   ...       0.00 
freq.    3363.40  E(vib)   ...       0.00 
freq.    3377.44  E(vib)   ...       0.00 

------------
INNER ENERGY
------------

The inner energy is: U= E(el) + E(ZPE) + E(vib) + E(rot) + E(trans)
    E(el)   - is the total energy from the electronic structure calculation
              = E(kin-el) + E(nuc-el) + E(el-el) + E(nuc-nuc)
    E(ZPE)  - the the zero temperature vibrational energy from the frequency calculation
    E(vib)  - the the finite temperature correction to E(ZPE) due to population
              of excited vibrational states
    E(rot)  - is the rotational thermal energy
    E(trans)- is the translational thermal energy

Summary of contributions to the inner energy U:
Electronic energy                ...   -234.06842458 Eh
Zero point energy                ...      0.13764125 Eh      86.37 kcal/mol
Thermal vibrational correction   ...      0.00320039 Eh       2.01 kcal/mol
Thermal rotational correction    ...      0.00141627 Eh       0.89 kcal/mol
Thermal translational correction ...      0.00141627 Eh       0.89 kcal/mol
-----------------------------------------------------------------------
Total thermal energy                   -233.92475041 Eh


Summary of corrections to the electronic energy:
(perhaps to be used in another calculation)
Total thermal correction                  0.00603293 Eh       3.79 kcal/mol
Non-thermal (ZPE) correction              0.13764125 Eh      86.37 kcal/mol
-----------------------------------------------------------------------
Total correction                          0.14367418 Eh      90.16 kcal/mol


--------
ENTHALPY
--------

The enthalpy is H = U + kB*T
                kB is Boltzmann's constant
Total free energy                 ...   -233.92475041 Eh 
Thermal Enthalpy correction       ...      0.00094421 Eh       0.59 kcal/mol
-----------------------------------------------------------------------
Total Enthalpy                    ...   -233.92380620 Eh


Note: Only C1 symmetry has been detected, increase convergence thresholds 
      if your molecule has a higher symmetry. Symmetry factor of 1.0 is   
      used for the rotational entropy correction. 
 

Note: Rotational entropy computed according to Herzberg 
Infrared and Raman Spectra, Chapter V,1, Van Nostrand Reinhold, 1945 
Point Group:  C1, Symmetry Number:   1  
Rotational constants in cm-1:     0.142218     0.117713     0.070336 

Vibrational entropy computed according to the QRRHO of S. Grimme
Chem.Eur.J. 2012 18 9955


-------
ENTROPY
-------

The entropy contributions are T*S = T*(S(el)+S(vib)+S(rot)+S(trans))
     S(el)   - electronic entropy
     S(vib)  - vibrational entropy
     S(rot)  - rotational entropy
     S(trans)- translational entropy
The entropies will be listed as multiplied by the temperature to get
units of energy

Electronic entropy                ...      0.00000000 Eh      0.00 kcal/mol
Vibrational entropy               ...      0.00501866 Eh      3.15 kcal/mol
Rotational entropy                ...      0.01269477 Eh      7.97 kcal/mol
Translational entropy             ...      0.01859270 Eh     11.67 kcal/mol
-----------------------------------------------------------------------
Final entropy term                ...      0.03630613 Eh     22.78 kcal/mol

In case the symmetry of your molecule has not been determined correctly
or in case you have a reason to use a different symmetry number we print 
out the resulting rotational entropy values for sn=1,12 :
 --------------------------------------------------------
|  sn= 1 | S(rot)=       0.01269477 Eh      7.97 kcal/mol|
|  sn= 2 | S(rot)=       0.01204031 Eh      7.56 kcal/mol|
|  sn= 3 | S(rot)=       0.01165748 Eh      7.32 kcal/mol|
|  sn= 4 | S(rot)=       0.01138585 Eh      7.14 kcal/mol|
|  sn= 5 | S(rot)=       0.01117517 Eh      7.01 kcal/mol|
|  sn= 6 | S(rot)=       0.01100302 Eh      6.90 kcal/mol|
|  sn= 7 | S(rot)=       0.01085748 Eh      6.81 kcal/mol|
|  sn= 8 | S(rot)=       0.01073140 Eh      6.73 kcal/mol|
|  sn= 9 | S(rot)=       0.01062019 Eh      6.66 kcal/mol|
|  sn=10 | S(rot)=       0.01052071 Eh      6.60 kcal/mol|
|  sn=11 | S(rot)=       0.01043072 Eh      6.55 kcal/mol|
|  sn=12 | S(rot)=       0.01034857 Eh      6.49 kcal/mol|
 --------------------------------------------------------


-------------------
GIBBS FREE ENERGY
-------------------

The Gibbs free energy is G = H - T*S

Total enthalpy                    ...   -233.92380620 Eh 
Total entropy correction          ...     -0.03630613 Eh    -22.78 kcal/mol
-----------------------------------------------------------------------
Final Gibbs free energy         ...   -233.96011232 Eh

For completeness - the Gibbs free energy minus the electronic energy
G-E(el)                           ...      0.10831226 Eh     67.97 kcal/mol


Timings for individual modules:

Sum of individual times         ...       49.419 sec (=   0.824 min)
GTO integral calculation        ...        2.753 sec (=   0.046 min)   5.6 %
SCF iterations                  ...        7.044 sec (=   0.117 min)  14.3 %
Analytical frequency calculation...       39.622 sec (=   0.660 min)  80.2 %
                             ****ORCA TERMINATED NORMALLY****
TOTAL RUN TIME: 0 days 0 hours 0 minutes 50 seconds 633 msec
