
                                 *****************
                                 * O   R   C   A *
                                 *****************

                                            #,                                       
                                            ###                                      
                                            ####                                     
                                            #####                                    
                                            ######                                   
                                           ########,                                 
                                     ,,################,,,,,                         
                               ,,#################################,,                 
                          ,,##########################################,,             
                       ,#########################################, ''#####,          
                    ,#############################################,,   '####,        
                  ,##################################################,,,,####,       
                ,###########''''           ''''###############################       
              ,#####''   ,,,,##########,,,,          '''####'''          '####       
            ,##' ,,,,###########################,,,                        '##       
           ' ,,###''''                  '''############,,,                           
         ,,##''                                '''############,,,,        ,,,,,,###''
      ,#''                                            '''#######################'''  
     '                                                          ''''####''''         
             ,#######,   #######,   ,#######,      ##                                
            ,#'     '#,  ##    ##  ,#'     '#,    #''#        ######   ,####,        
            ##       ##  ##   ,#'  ##            #'  '#       #        #'  '#        
            ##       ##  #######   ##           ,######,      #####,   #    #        
            '#,     ,#'  ##    ##  '#,     ,#' ,#      #,         ##   #,  ,#        
             '#######'   ##     ##  '#######'  #'      '#     #####' # '####'        



                  #######################################################
                  #                        -***-                        #
                  #          Department of theory and spectroscopy      #
                  #    Directorship and core code : Frank Neese         #
                  #        Max Planck Institute fuer Kohlenforschung    #
                  #                Kaiser Wilhelm Platz 1               #
                  #                 D-45470 Muelheim/Ruhr               #
                  #                      Germany                        #
                  #                                                     #
                  #                  All rights reserved                #
                  #                        -***-                        #
                  #######################################################


                         Program Version 5.0.4 -  RELEASE  -


 With contributions from (in alphabetic order):
   Daniel Aravena         : Magnetic Suceptibility
   Michael Atanasov       : Ab Initio Ligand Field Theory (pilot matlab implementation)
   Alexander A. Auer      : GIAO ZORA, VPT2 properties, NMR spectrum
   Ute Becker             : Parallelization
   Giovanni Bistoni       : ED, misc. LED, open-shell LED, HFLD
   Martin Brehm           : Molecular dynamics
   Dmytro Bykov           : SCF Hessian
   Vijay G. Chilkuri      : MRCI spin determinant printing, contributions to CSF-ICE
   Dipayan Datta          : RHF DLPNO-CCSD density
   Achintya Kumar Dutta   : EOM-CC, STEOM-CC
   Dmitry Ganyushin       : Spin-Orbit,Spin-Spin,Magnetic field MRCI
   Miquel Garcia          : C-PCM and meta-GGA Hessian, CC/C-PCM, Gaussian charge scheme
   Yang Guo               : DLPNO-NEVPT2, F12-NEVPT2, CIM, IAO-localization
   Andreas Hansen         : Spin unrestricted coupled pair/coupled cluster methods
   Benjamin Helmich-Paris : MC-RPA, TRAH-SCF, COSX integrals
   Lee Huntington         : MR-EOM, pCC
   Robert Izsak           : Overlap fitted RIJCOSX, COSX-SCS-MP3, EOM
   Marcus Kettner         : VPT2
   Christian Kollmar      : KDIIS, OOCD, Brueckner-CCSD(T), CCSD density, CASPT2, CASPT2-K
   Simone Kossmann        : Meta GGA functionals, TD-DFT gradient, OOMP2, MP2 Hessian
   Martin Krupicka        : Initial AUTO-CI
   Lucas Lang             : DCDCAS
   Marvin Lechner         : AUTO-CI (C++ implementation), FIC-MRCC
   Dagmar Lenk            : GEPOL surface, SMD
   Dimitrios Liakos       : Extrapolation schemes; Compound Job, initial MDCI parallelization
   Dimitrios Manganas     : Further ROCIS development; embedding schemes
   Dimitrios Pantazis     : SARC Basis sets
   Anastasios Papadopoulos: AUTO-CI, single reference methods and gradients
   Taras Petrenko         : DFT Hessian,TD-DFT gradient, ASA, ECA, R-Raman, ABS, FL, XAS/XES, NRVS
   Peter Pinski           : DLPNO-MP2, DLPNO-MP2 Gradient
   Christoph Reimann      : Effective Core Potentials
   Marius Retegan         : Local ZFS, SOC
   Christoph Riplinger    : Optimizer, TS searches, QM/MM, DLPNO-CCSD(T), (RO)-DLPNO pert. Triples
   Tobias Risthaus        : Range-separated hybrids, TD-DFT gradient, RPA, STAB
   Michael Roemelt        : Original ROCIS implementation
   Masaaki Saitow         : Open-shell DLPNO-CCSD energy and density
   Barbara Sandhoefer     : DKH picture change effects
   Avijit Sen             : IP-ROCIS
   Kantharuban Sivalingam : CASSCF convergence, NEVPT2, FIC-MRCI
   Bernardo de Souza      : ESD, SOC TD-DFT
   Georgi Stoychev        : AutoAux, RI-MP2 NMR, DLPNO-MP2 response
   Willem Van den Heuvel  : Paramagnetic NMR
   Boris Wezisla          : Elementary symmetry handling
   Frank Wennmohs         : Technical directorship


 We gratefully acknowledge several colleagues who have allowed us to
 interface, adapt or use parts of their codes:
   Stefan Grimme, W. Hujo, H. Kruse, P. Pracht,  : VdW corrections, initial TS optimization,
                  C. Bannwarth, S. Ehlert          DFT functionals, gCP, sTDA/sTD-DF
   Ed Valeev, F. Pavosevic, A. Kumar             : LibInt (2-el integral package), F12 methods
   Garnet Chan, S. Sharma, J. Yang, R. Olivares  : DMRG
   Ulf Ekstrom                                   : XCFun DFT Library
   Mihaly Kallay                                 : mrcc  (arbitrary order and MRCC methods)
   Jiri Pittner, Ondrej Demel                    : Mk-CCSD
   Frank Weinhold                                : gennbo (NPA and NBO analysis)
   Christopher J. Cramer and Donald G. Truhlar   : smd solvation model
   Lars Goerigk                                  : TD-DFT with DH, B97 family of functionals
   V. Asgeirsson, H. Jonsson                     : NEB implementation
   FAccTs GmbH                                   : IRC, NEB, NEB-TS, DLPNO-Multilevel, CI-OPT
                                                   MM, QMMM, 2- and 3-layer-ONIOM, Crystal-QMMM,
                                                   LR-CPCM, SF, NACMEs, symmetry and pop. for TD-DFT,
                                                   nearIR, NL-DFT gradient (VV10), updates on ESD,
                                                   ML-optimized integration grids
   S Lehtola, MJT Oliveira, MAL Marques          : LibXC Library
   Liviu Ungur et al                             : ANISO software


 Your calculation uses the libint2 library for the computation of 2-el integrals
 For citations please refer to: http://libint.valeyev.net

 Your ORCA version has been built with support for libXC version: 5.1.0
 For citations please refer to: https://tddft.org/programs/libxc/

 This ORCA versions uses:
   CBLAS   interface :  Fast vector & matrix operations
   LAPACKE interface :  Fast linear algebra routines
   SCALAPACK package :  Parallel linear algebra routines
   Shared memory     :  Shared parallel matrices
   BLAS/LAPACK       :  OpenBLAS 0.3.15  USE64BITINT DYNAMIC_ARCH NO_AFFINITY Haswell SINGLE_THREADED
        Core in use  :  Haswell
   Copyright (c) 2011-2014, The OpenBLAS Project


Your calculation utilizes the atom-pairwise dispersion correction
with the Becke-Johnson damping scheme (D3BJ)
Cite in your paper:
S.Grimme, S.Ehrlich, L.Goerigk, J Comput Chem, (2011), 32, 1456–1465 
S.Grimme, J.Antony, S.Ehrlich and H.Krieg, J.Chem.Phys., 132, (2010), 154104 
   

================================================================================

----- Orbital basis set information -----
Your calculation utilizes the basis: def2-SVP
   F. Weigend and R. Ahlrichs, Phys. Chem. Chem. Phys. 7, 3297 (2005).

----- AuxJ basis set information -----
Your calculation utilizes the auxiliary basis: def2/J
   F. Weigend, Phys. Chem. Chem. Phys. 8, 1057 (2006).

================================================================================
                                        WARNINGS
                       Please study these warnings very carefully!
================================================================================


WARNING: Geometry Optimization
  ===> : Switching off AutoStart
         For restart on a previous wavefunction, please use MOREAD

INFO   : the flag for use of the SHARK integral package has been found!

================================================================================
                                       INPUT FILE
================================================================================
NAME = TS_5ZPuRE_ll_ad_2-3_4-5_optts_orca.inp
|  1> ! OptTS Freq PBE0 RIJCOSX D3BJ def2-SVP def2/J  
|  2> %geom
|  3> Calc_Hess true
|  4> Recalc_Hess 20
|  5> Trust -0.1
|  6> MaxIter 100
|  7> end
|  8> %geom
|  9> modify_internal
| 10> { B 2 3 A } end
| 11> end
| 12> %geom
| 13> modify_internal
| 14> { B 4 5 A } end
| 15> end
| 16> %output 
| 17> xyzfile=True 
| 18> end 
| 19> %scf 
| 20> maxiter 250 
| 21> end
| 22> %output
| 23> Print[P_Hirshfeld] = 1
| 24> end
| 25> % maxcore
| 26> 4000
| 27> %pal nprocs 8
| 28> end
| 29> *xyz 0 1
| 30> C    0.21691329   1.60460999  -0.32497021 
| 31> C   -1.04732083   1.27369177  -0.09473722 
| 32> C   -1.62831632  -0.03815331   0.20796981 
| 33> C   -0.13152271  -1.43969970   0.70397151 
| 34> C    0.91791491  -1.28631025  -0.29598329 
| 35> C    1.41785520   0.76284308  -0.32489174 
| 36> H    0.43087808   2.65044352  -0.53531113 
| 37> H   -1.78927335   2.06821229  -0.13872352 
| 38> H   -2.23949274  -0.06286165   1.09976819 
| 39> H   -2.09578334  -0.53005289  -0.63514457 
| 40> H    0.13238736  -1.17084313   1.71569032 
| 41> H   -0.73674022  -2.33441240   0.63385143 
| 42> H    1.89424474  -1.67355913  -0.03409577 
| 43> H    0.63258584  -1.48267876  -1.31865598 
| 44> H    2.01962098   0.84035436   0.57163014 
| 45> H    2.00616909   0.81871620  -1.23039797 
| 46> *
| 47> 
| 48>                          ****END OF INPUT****
================================================================================

                       *****************************
                       * Geometry Optimization Run *
                       *****************************

Geometry optimization settings:
Update method            Update   .... Bofill
Choice of coordinates    CoordSys .... Z-matrix Internals
Initial Hessian          InHess   .... Almoef's Model

Convergence Tolerances:
Energy Change            TolE     ....  5.0000e-06 Eh
Max. Gradient            TolMAXG  ....  3.0000e-04 Eh/bohr
RMS Gradient             TolRMSG  ....  1.0000e-04 Eh/bohr
Max. Displacement        TolMAXD  ....  4.0000e-03 bohr
RMS Displacement         TolRMSD  ....  2.0000e-03 bohr
Strict Convergence                ....  False
------------------------------------------------------------------------------
                        ORCA OPTIMIZATION COORDINATE SETUP
------------------------------------------------------------------------------

The optimization will be done in new redundant internal coordinates
Making redundant internal coordinates   ...  (new redundants) Bond   3,  2 is already included
Bond   5,  4 is already included
done
Following TS mode number                ...     0
Evaluating the initial hessian          ...  (Is done on the fly) done
Evaluating the coordinates              ...  done
Calculating the B-matrix                .... done
Calculating the G-matrix                .... done
Diagonalizing the G-matrix              .... done
The first mode is                       ....   59
The number of degrees of freedom        ....   42

    -----------------------------------------------------------------
                    Redundant Internal Coordinates


    -----------------------------------------------------------------
         Definition                    Initial Value    d2E/dq (diagonal element)
    -----------------------------------------------------------------
      1. B(C   1,C   0)                  1.3270         0.000000   
      2. B(C   2,C   1)                  1.4663         0.000000   
      3. B(C   3,C   2)                  2.1097         0.000000   
      4. B(C   4,C   3)                  1.4577         0.000000   
      5. B(C   5,C   0)                  1.4666         0.000000   
      6. B(C   5,C   4)                  2.1095         0.000000   
      7. B(H   6,C   0)                  1.0880         0.000000   
      8. B(H   7,C   1)                  1.0880         0.000000   
      9. B(H   8,C   2)                  1.0814         0.000000   
     10. B(H   8,C   3)                  2.5487         0.000000   
     11. B(H   9,C   2)                  1.0823         0.000000   
     12. B(H   9,C   3)                  2.5454         0.000000   
     13. B(H  10,H   8)                  2.6894         0.000000   
     14. B(H  10,C   3)                  1.0796         0.000000   
     15. B(H  10,C   2)                  2.5800         0.000000   
     16. B(H  11,H   9)                  2.5910         0.000000   
     17. B(H  11,C   3)                  1.0825         0.000000   
     18. B(H  11,C   2)                  2.4998         0.000000   
     19. B(H  12,C   4)                  1.0825         0.000000   
     20. B(H  12,C   5)                  2.4995         0.000000   
     21. B(H  13,C   4)                  1.0797         0.000000   
     22. B(H  13,C   5)                  2.5781         0.000000   
     23. B(H  14,H  12)                  2.5889         0.000000   
     24. B(H  14,C   4)                  2.5474         0.000000   
     25. B(H  14,C   5)                  1.0825         0.000000   
     26. B(H  15,H  13)                  2.6816         0.000000   
     27. B(H  15,C   5)                  1.0813         0.000000   
     28. B(H  15,C   4)                  2.5473         0.000000   
     29. A(C   5,C   0,H   6)          112.9973         0.000000   
     30. A(C   1,C   0,H   6)          117.4268         0.000000   
     31. A(C   1,C   0,C   5)          129.5704         0.000000   
     32. A(C   0,C   1,H   7)          117.4253         0.000000   
     33. A(C   2,C   1,H   7)          113.0463         0.000000   
     34. A(C   0,C   1,C   2)          129.5256         0.000000   
     35. A(C   3,C   2,H   8)          101.0646         0.000000   
     36. A(C   1,C   2,H   8)          114.4951         0.000000   
     37. A(C   3,C   2,H   9)          100.8160         0.000000   
     38. A(C   1,C   2,C   3)          111.2088         0.000000   
     39. A(H   8,C   2,H   9)          112.8257         0.000000   
     40. A(C   1,C   2,H   9)          114.6415         0.000000   
     41. A(C   2,C   3,H  11)           97.8859         0.000000   
     42. A(C   2,C   3,H  10)          103.1982         0.000000   
     43. A(C   4,C   3,H  11)          116.4281         0.000000   
     44. A(C   2,C   3,C   4)          106.2365         0.000000   
     45. A(C   4,C   3,H  10)          116.1470         0.000000   
     46. A(H  10,C   3,H  11)          113.7801         0.000000   
     47. A(C   5,C   4,H  13)          103.0803         0.000000   
     48. A(C   5,C   4,H  12)           97.8784         0.000000   
     49. A(C   3,C   4,H  12)          116.4705         0.000000   
     50. A(C   3,C   4,C   5)          106.3946         0.000000   
     51. A(H  12,C   4,H  13)          113.7301         0.000000   
     52. A(C   3,C   4,H  13)          116.1266         0.000000   
     53. A(C   4,C   5,H  15)          100.9890         0.000000   
     54. A(C   4,C   5,H  14)          100.9499         0.000000   
     55. A(C   0,C   5,C   4)          111.3146         0.000000   
     56. A(H  14,C   5,H  15)          112.7920         0.000000   
     57. A(C   0,C   5,H  15)          114.5721         0.000000   
     58. A(C   0,C   5,H  14)          114.4658         0.000000   
     59. D(C   2,C   1,C   0,C   5)     -1.1143         0.000000   
     60. D(H   7,C   1,C   0,C   5)    179.5374         0.000000   
     61. D(C   2,C   1,C   0,H   6)    179.8072         0.000000   
     62. D(H   7,C   1,C   0,H   6)      0.4589         0.000000   
     63. D(C   3,C   2,C   1,H   7)   -167.2999         0.000000   
     64. D(C   3,C   2,C   1,C   0)     13.3287         0.000000   
     65. D(H   8,C   2,C   1,H   7)    -53.5326         0.000000   
     66. D(H   8,C   2,C   1,C   0)    127.0960         0.000000   
     67. D(H   9,C   2,C   1,C   0)   -100.2158         0.000000   
     68. D(H   9,C   2,C   1,H   7)     79.1556         0.000000   
     69. D(H  10,C   3,C   2,C   1)     76.7004         0.000000   
     70. D(C   4,C   3,C   2,H   8)   -167.9058         0.000000   
     71. D(C   4,C   3,C   2,C   1)    -45.9648         0.000000   
     72. D(H  10,C   3,C   2,H   8)    -45.2405         0.000000   
     73. D(C   4,C   3,C   2,H   9)     76.0040         0.000000   
     74. D(H  11,C   3,C   2,H   9)    -44.5483         0.000000   
     75. D(H  11,C   3,C   2,H   8)     71.5419         0.000000   
     76. D(H  11,C   3,C   2,C   1)   -166.5172         0.000000   
     77. D(H  10,C   3,C   2,H   9)   -161.3308         0.000000   
     78. D(C   5,C   4,C   3,C   2)     52.6078         0.000000   
     79. D(C   5,C   4,C   3,H  10)    -61.4638         0.000000   
     80. D(H  13,C   4,C   3,C   2)    -61.4125         0.000000   
     81. D(H  13,C   4,C   3,H  11)     46.3045         0.000000   
     82. D(H  13,C   4,C   3,H  10)   -175.4841         0.000000   
     83. D(H  12,C   4,C   3,C   2)    160.4330         0.000000   
     84. D(C   5,C   4,C   3,H  11)    160.3248         0.000000   
     85. D(H  12,C   4,C   3,H  10)     46.3614         0.000000   
     86. D(H  12,C   4,C   3,H  11)    -91.8499         0.000000   
     87. D(H  15,C   5,C   0,C   1)    125.9597         0.000000   
     88. D(H  14,C   5,C   0,H   6)     77.6055         0.000000   
     89. D(H  14,C   5,C   0,C   1)   -101.5059         0.000000   
     90. D(H  15,C   5,C   4,H  12)     72.2918         0.000000   
     91. D(H  15,C   5,C   4,C   3)   -167.0597         0.000000   
     92. D(H  14,C   5,C   4,H  13)   -160.4755         0.000000   
     93. D(H  14,C   5,C   4,H  12)    -43.7808         0.000000   
     94. D(H  14,C   5,C   4,C   3)     76.8676         0.000000   
     95. D(C   0,C   5,C   4,H  13)     77.6345         0.000000   
     96. D(C   0,C   5,C   4,H  12)   -165.6708         0.000000   
     97. D(C   0,C   5,C   4,C   3)    -45.0224         0.000000   
     98. D(C   4,C   5,C   0,H   6)   -168.7198         0.000000   
     99. D(C   4,C   5,C   0,C   1)     12.1688         0.000000   
    100. D(H  15,C   5,C   4,H  13)    -44.4029         0.000000   
    101. D(H  15,C   5,C   0,H   6)    -54.9289         0.000000   
    -----------------------------------------------------------------

Number of atoms                         .... 16
Number of degrees of freedom            .... 101

         *************************************************************
         *                GEOMETRY OPTIMIZATION CYCLE   1            *
         *************************************************************
---------------------------------
CARTESIAN COORDINATES (ANGSTROEM)
---------------------------------
  C      0.216913    1.604610   -0.324970
  C     -1.047321    1.273692   -0.094737
  C     -1.628316   -0.038153    0.207970
  C     -0.131523   -1.439700    0.703972
  C      0.917915   -1.286310   -0.295983
  C      1.417855    0.762843   -0.324892
  H      0.430878    2.650444   -0.535311
  H     -1.789273    2.068212   -0.138724
  H     -2.239493   -0.062862    1.099768
  H     -2.095783   -0.530053   -0.635145
  H      0.132387   -1.170843    1.715690
  H     -0.736740   -2.334412    0.633851
  H      1.894245   -1.673559   -0.034096
  H      0.632586   -1.482679   -1.318656
  H      2.019621    0.840354    0.571630
  H      2.006169    0.818716   -1.230398

----------------------------
CARTESIAN COORDINATES (A.U.)
----------------------------
  NO LB      ZA    FRAG     MASS         X           Y           Z
   0 C     6.0000    0    12.011    0.409907    3.032273   -0.614105
   1 C     6.0000    0    12.011   -1.979150    2.406929   -0.179027
   2 C     6.0000    0    12.011   -3.077072   -0.072099    0.393006
   3 C     6.0000    0    12.011   -0.248542   -2.720638    1.330313
   4 C     6.0000    0    12.011    1.734608   -2.430774   -0.559327
   5 C     6.0000    0    12.011    2.679358    1.441565   -0.613956
   6 H     1.0000    0     1.008    0.814242    5.008612   -1.011591
   7 H     1.0000    0     1.008   -3.381237    3.908355   -0.262149
   8 H     1.0000    0     1.008   -4.232028   -0.118791    2.078261
   9 H     1.0000    0     1.008   -3.960457   -1.001655   -1.200249
  10 H     1.0000    0     1.008    0.250176   -2.212573    3.242185
  11 H     1.0000    0     1.008   -1.392237   -4.411400    1.197806
  12 H     1.0000    0     1.008    3.579604   -3.162568   -0.064432
  13 H     1.0000    0     1.008    1.195414   -2.801857   -2.491899
  14 H     1.0000    0     1.008    3.816531    1.588040    1.080224
  15 H     1.0000    0     1.008    3.791110    1.547149   -2.325115

--------------------------------
INTERNAL COORDINATES (ANGSTROEM)
--------------------------------
 C      0   0   0     0.000000000000     0.00000000     0.00000000
 C      1   0   0     1.326952149923     0.00000000     0.00000000
 C      2   1   0     1.466330392283   129.52563189     0.00000000
 C      3   2   1     2.109677956623   111.20882969    13.32866803
 C      4   3   2     1.457654706604   106.23650611   314.03519675
 C      1   2   3     1.466571855765   129.57041333   358.88567654
 H      1   2   3     1.088022061568   117.42679903   179.80719451
 H      2   1   3     1.087975731909   117.42533326   180.65167702
 H      3   2   1     1.081411794369   114.49507343   127.09602951
 H      3   2   1     1.082281141550   114.64152568   259.78418886
 H      4   3   2     1.079586648115   103.19821171    76.70042731
 H      4   3   2     1.082458255810    97.88587471   193.48284580
 H      5   4   3     1.082481734322   116.47050682   160.43302456
 H      5   4   3     1.079737329529   116.12664605   298.58747758
 H      6   1   2     1.082534772571   114.46575571   258.49410468
 H      6   1   2     1.081284685582   114.57207351   125.95965959

---------------------------
INTERNAL COORDINATES (A.U.)
---------------------------
 C      0   0   0     0.000000000000     0.00000000     0.00000000
 C      1   0   0     2.507576156172     0.00000000     0.00000000
 C      2   1   0     2.770962863260   129.52563189     0.00000000
 C      3   2   1     3.986713568788   111.20882969    13.32866803
 C      4   3   2     2.754568193303   106.23650611   314.03519675
 C      1   2   3     2.771419163113   129.57041333   358.88567654
 H      1   2   3     2.056063724028   117.42679903   179.80719451
 H      2   1   3     2.055976173661   117.42533326   180.65167702
 H      3   2   1     2.043572129350   114.49507343   127.09602951
 H      3   2   1     2.045214957437   114.64152568   259.78418886
 H      4   3   2     2.040123102775   103.19821171    76.70042731
 H      4   3   2     2.045549654883    97.88587471   193.48284580
 H      5   4   3     2.045594022841   116.47050682   160.43302456
 H      5   4   3     2.040407849381   116.12664605   298.58747758
 H      6   1   2     2.045694250606   114.46575571   258.49410468
 H      6   1   2     2.043331928553   114.57207351   125.95965959

---------------------
BASIS SET INFORMATION
---------------------
There are 2 groups of distinct atoms

 Group   1 Type C   : 7s4p1d contracted to 3s2p1d pattern {511/31/1}
 Group   2 Type H   : 4s1p contracted to 2s1p pattern {31/1}

Atom   0C    basis set group =>   1
Atom   1C    basis set group =>   1
Atom   2C    basis set group =>   1
Atom   3C    basis set group =>   1
Atom   4C    basis set group =>   1
Atom   5C    basis set group =>   1
Atom   6H    basis set group =>   2
Atom   7H    basis set group =>   2
Atom   8H    basis set group =>   2
Atom   9H    basis set group =>   2
Atom  10H    basis set group =>   2
Atom  11H    basis set group =>   2
Atom  12H    basis set group =>   2
Atom  13H    basis set group =>   2
Atom  14H    basis set group =>   2
Atom  15H    basis set group =>   2
---------------------------------
AUXILIARY/J BASIS SET INFORMATION
---------------------------------
There are 2 groups of distinct atoms

 Group   1 Type C   : 12s5p4d2f1g contracted to 6s4p3d1f1g pattern {711111/2111/211/2/1}
 Group   2 Type H   : 5s2p1d contracted to 3s1p1d pattern {311/2/1}

Atom   0C    basis set group =>   1
Atom   1C    basis set group =>   1
Atom   2C    basis set group =>   1
Atom   3C    basis set group =>   1
Atom   4C    basis set group =>   1
Atom   5C    basis set group =>   1
Atom   6H    basis set group =>   2
Atom   7H    basis set group =>   2
Atom   8H    basis set group =>   2
Atom   9H    basis set group =>   2
Atom  10H    basis set group =>   2
Atom  11H    basis set group =>   2
Atom  12H    basis set group =>   2
Atom  13H    basis set group =>   2
Atom  14H    basis set group =>   2
Atom  15H    basis set group =>   2


           ************************************************************
           *        Program running with 8 parallel MPI-processes     *
           *              working on a common directory               *
           ************************************************************
------------------------------------------------------------------------------
                           ORCA GTO INTEGRAL CALCULATION
                           -- RI-GTO INTEGRALS CHOSEN --
------------------------------------------------------------------------------
------------------------------------------------------------------------------
                   ___                                                        
                  /   \      - P O W E R E D   B Y -                         
                 /     \                                                     
                 |  |  |   _    _      __       _____    __    __             
                 |  |  |  | |  | |    /  \     |  _  \  |  |  /  |          
                  \  \/   | |  | |   /    \    | | | |  |  | /  /          
                 / \  \   | |__| |  /  /\  \   | |_| |  |  |/  /          
                |  |  |   |  __  | /  /__\  \  |    /   |      \           
                |  |  |   | |  | | |   __   |  |    \   |  |\   \          
                \     /   | |  | | |  |  |  |  | |\  \  |  | \   \       
                 \___/    |_|  |_| |__|  |__|  |_| \__\ |__|  \__/        
                                                                              
                      - O R C A' S   B I G   F R I E N D -                    
                                      &                                       
                       - I N T E G R A L  F E E D E R -                       
                                                                              
 v1 FN, 2020, v2 2021                                                         
------------------------------------------------------------------------------


Reading SHARK input file TS_5ZPuRE_ll_ad_2-3_4-5_optts_orca.SHARKINP.tmp ... ok
----------------------
SHARK INTEGRAL PACKAGE
----------------------

Number of atoms                             ...     16
Number of basis functions                   ...    134
Number of shells                            ...     66
Maximum angular momentum                    ...      2
Integral batch strategy                     ... SHARK/LIBINT Hybrid
RI-J (if used) integral strategy            ... SPLIT-RIJ (Revised 2003 algorithm where possible)
Printlevel                                  ...      1
Contraction scheme used                     ... SEGMENTED contraction
Coulomb Range Separation                    ... NOT USED
Exchange Range Separation                   ... NOT USED
Finite Nucleus Model                        ... NOT USED
Auxiliary Coulomb fitting basis             ... AVAILABLE
   # of basis functions in Aux-J            ...    404
   # of shells in Aux-J                     ...    140
   Maximum angular momentum in Aux-J        ...      4
Auxiliary J/K fitting basis                 ... NOT available
Auxiliary Correlation fitting basis         ... NOT available
Auxiliary 'external' fitting basis          ... NOT available
Integral threshold                          ...     2.500000e-11
Primitive cut-off                           ...     2.500000e-12
Primitive pair pre-selection threshold      ...     2.500000e-12

Calculating pre-screening integrals         ... done (  0.0 sec) Dimension = 66
Organizing shell pair data                  ... done (  0.0 sec)
Shell pair information
Total number of shell pairs                 ...      2211
Shell pairs after pre-screening             ...      2174
Total number of primitive shell pairs       ...      7611
Primitive shell pairs kept                  ...      5808
          la=0 lb=0:    728 shell pairs
          la=1 lb=0:    815 shell pairs
          la=1 lb=1:    250 shell pairs
          la=2 lb=0:    228 shell pairs
          la=2 lb=1:    132 shell pairs
          la=2 lb=2:     21 shell pairs

Calculating one electron integrals          ... done (  0.0 sec)
Calculating RI/J V-Matrix + Cholesky decomp.... done (  0.0 sec)
Calculating Nuclear repulsion               ... done (  0.0 sec) ENN=    221.534603569541 Eh

SHARK setup successfully completed in   0.1 seconds

Maximum memory used throughout the entire GTOINT-calculation: 10.9 MB


           ************************************************************
           *        Program running with 8 parallel MPI-processes     *
           *              working on a common directory               *
           ************************************************************
-------------------------------------------------------------------------------
                                 ORCA SCF
-------------------------------------------------------------------------------

------------
SCF SETTINGS
------------
Hamiltonian:
 Density Functional     Method          .... DFT(GTOs)
 Exchange Functional    Exchange        .... PBE
   PBE kappa parameter   XKappa         ....  0.804000
   PBE mue parameter    XMuePBE         ....  0.219520
 Correlation Functional Correlation     .... PBE
   PBE beta parameter  CBetaPBE         ....  0.066725
 LDA part of GGA corr.  LDAOpt          .... PW91-LDA
 Gradients option       PostSCFGGA      .... off
 Hybrid DFT is turned on
   Fraction HF Exchange ScalHFX         ....  0.250000
   Scaling of DF-GGA-X  ScalDFX         ....  0.750000
   Scaling of DF-GGA-C  ScalDFC         ....  1.000000
   Scaling of DF-LDA-C  ScalLDAC        ....  1.000000
   Perturbative correction              ....  0.000000
   Density functional embedding theory  .... OFF
   NL short-range parameter             ....  6.900000
 RI-approximation to the Coulomb term is turned on
   Number of AuxJ basis functions       .... 404
   RIJ-COSX (HFX calculated with COS-X)).... on


General Settings:
 Integral files         IntName         .... TS_5ZPuRE_ll_ad_2-3_4-5_optts_orca
 Hartree-Fock type      HFTyp           .... RHF
 Total Charge           Charge          ....    0
 Multiplicity           Mult            ....    1
 Number of Electrons    NEL             ....   46
 Basis Dimension        Dim             ....  134
 Nuclear Repulsion      ENuc            ....    221.5346035695 Eh

Convergence Acceleration:
 DIIS                   CNVDIIS         .... on
   Start iteration      DIISMaxIt       ....    12
   Startup error        DIISStart       ....  0.200000
   # of expansion vecs  DIISMaxEq       ....     5
   Bias factor          DIISBfac        ....   1.050
   Max. coefficient     DIISMaxC        ....  10.000
 Trust-Rad. Augm. Hess. CNVTRAH         .... auto
   Auto Start mean grad. ratio tolernc. ....  1.125000
   Auto Start start iteration           ....    20
   Auto Start num. interpolation iter.  ....    10
   Max. Number of Micro iterations      ....    16
   Max. Number of Macro iterations      .... Maxiter - #DIIS iter
   Number of Davidson start vectors     ....     2
   Converg. threshold I  (grad. norm)   ....   1.000e-05
   Converg. threshold II (energy diff.) ....   1.000e-08
   Grad. Scal. Fac. for Micro threshold ....   0.100
   Minimum threshold for Micro iter.    ....   0.010
   NR start threshold (gradient norm)   ....   0.001
   Initial trust radius                 ....   0.400
   Minimum AH scaling param. (alpha)    ....   1.000
   Maximum AH scaling param. (alpha)    .... 1000.000
   Orbital update algorithm             .... Taylor
   White noise on init. David. guess    .... on
   Maximum white noise                  ....   0.010
   Quad. conv. algorithm                .... NR
 SOSCF                  CNVSOSCF        .... on
   Start iteration      SOSCFMaxIt      ....   150
   Startup grad/error   SOSCFStart      ....  0.003300
 Level Shifting         CNVShift        .... on
   Level shift para.    LevelShift      ....    0.2500
   Turn off err/grad.   ShiftErr        ....    0.0010
 Zerner damping         CNVZerner       .... off
 Static damping         CNVDamp         .... on
   Fraction old density DampFac         ....    0.7000
   Max. Damping (<1)    DampMax         ....    0.9800
   Min. Damping (>=0)   DampMin         ....    0.0000
   Turn off err/grad.   DampErr         ....    0.1000
 Fernandez-Rico         CNVRico         .... off

SCF Procedure:
 Maximum # iterations   MaxIter         ....   250
 SCF integral mode      SCFMode         .... Direct
   Integral package                     .... SHARK and LIBINT hybrid scheme
 Reset frequency        DirectResetFreq ....    20
 Integral Threshold     Thresh          ....  2.500e-11 Eh
 Primitive CutOff       TCut            ....  2.500e-12 Eh

Convergence Tolerance:
 Convergence Check Mode ConvCheckMode   .... Total+1el-Energy
 Convergence forced     ConvForced      .... 0
 Energy Change          TolE            ....  1.000e-08 Eh
 1-El. energy change                    ....  1.000e-05 Eh
 Orbital Gradient       TolG            ....  1.000e-05
 Orbital Rotation angle TolX            ....  1.000e-05
 DIIS Error             TolErr          ....  5.000e-07


Diagonalization of the overlap matrix:
Smallest eigenvalue                        ... 1.401e-03
Time for diagonalization                   ...    0.003 sec
Threshold for overlap eigenvalues          ... 1.000e-08
Number of eigenvalues below threshold      ... 0
Time for construction of square roots      ...    0.002 sec
Total time needed                          ...    0.006 sec

Time for model grid setup =    0.050 sec

------------------------------
INITIAL GUESS: MODEL POTENTIAL
------------------------------
Loading Hartree-Fock densities                     ... done
Calculating cut-offs                               ... done
Initializing the effective Hamiltonian             ... done
Setting up the integral package (SHARK)            ... done
Starting the Coulomb interaction                   ... done (   0.0 sec)
Reading the grid                                   ... done
Mapping shells                                     ... done
Starting the XC term evaluation                    ... done (   0.0 sec)
  promolecular density results
     # of electrons  =     45.994773884
     EX              =    -33.506571499
     EC              =     -1.462830455
     EX+EC           =    -34.969401953
Transforming the Hamiltonian                       ... done (   0.0 sec)
Diagonalizing the Hamiltonian                      ... done (   0.0 sec)
Back transforming the eigenvectors                 ... done (   0.0 sec)
Now organizing SCF variables                       ... done
                      ------------------
                      INITIAL GUESS DONE (   0.1 sec)
                      ------------------
-------------------
DFT GRID GENERATION
-------------------

General Integration Accuracy     IntAcc      ... 4.388
Radial Grid Type                 RadialGrid  ... OptM3 with GC (2021)
Angular Grid (max. ang.)         AngularGrid ... 4 (Lebedev-302)
Angular grid pruning method      GridPruning ... 4 (adaptive)
Weight generation scheme         WeightScheme... Becke
Basis function cutoff            BFCut       ... 1.0000e-11
Integration weight cutoff        WCut        ... 1.0000e-14
Angular grids for H and He will be reduced by one unit
Partially contracted basis set               ... off
Rotationally invariant grid construction     ... off

Total number of grid points                  ...    68344
Total number of batches                      ...     1077
Average number of points per batch           ...       63
Average number of grid points per atom       ...     4272
Time for grid setup =    0.296 sec

--------------------
COSX GRID GENERATION
--------------------

GRIDX 1
-------
General Integration Accuracy     IntAcc      ... 3.816
Radial Grid Type                 RadialGrid  ... OptM3 with GC (2021)
Angular Grid (max. ang.)         AngularGrid ... 1 (Lebedev-50)
Angular grid pruning method      GridPruning ... 4 (adaptive)
Weight generation scheme         WeightScheme... Becke
Basis function cutoff            BFCut       ... 1.0000e-11
Integration weight cutoff        WCut        ... 1.0000e-14
Angular grids for H and He will be reduced by one unit
Partially contracted basis set               ... on
Rotationally invariant grid construction     ... off

Total number of grid points                  ...     8779
Total number of batches                      ...      146
Average number of points per batch           ...       60
Average number of grid points per atom       ...      549
UseSFitting                                  ... on

GRIDX 2
-------
General Integration Accuracy     IntAcc      ... 4.020
Radial Grid Type                 RadialGrid  ... OptM3 with GC (2021)
Angular Grid (max. ang.)         AngularGrid ... 2 (Lebedev-110)
Angular grid pruning method      GridPruning ... 4 (adaptive)
Weight generation scheme         WeightScheme... Becke
Basis function cutoff            BFCut       ... 1.0000e-11
Integration weight cutoff        WCut        ... 1.0000e-14
Angular grids for H and He will be reduced by one unit
Partially contracted basis set               ... on
Rotationally invariant grid construction     ... off

Total number of grid points                  ...    18416
Total number of batches                      ...      294
Average number of points per batch           ...       62
Average number of grid points per atom       ...     1151
UseSFitting                                  ... on

GRIDX 3
-------
General Integration Accuracy     IntAcc      ... 4.338
Radial Grid Type                 RadialGrid  ... OptM3 with GC (2021)
Angular Grid (max. ang.)         AngularGrid ... 3 (Lebedev-194)
Angular grid pruning method      GridPruning ... 4 (adaptive)
Weight generation scheme         WeightScheme... Becke
Basis function cutoff            BFCut       ... 1.0000e-11
Integration weight cutoff        WCut        ... 1.0000e-14
Angular grids for H and He will be reduced by one unit
Partially contracted basis set               ... on
Rotationally invariant grid construction     ... off

Total number of grid points                  ...    40295
Total number of batches                      ...      638
Average number of points per batch           ...       63
Average number of grid points per atom       ...     2518
UseSFitting                                  ... on

Time for X-Grid setup             =    0.226 sec

--------------
SCF ITERATIONS
--------------
ITER       Energy         Delta-E        Max-DP      RMS-DP      [F,P]     Damp
               ***  Starting incremental Fock matrix formation  ***
  0   -233.9212001221   0.000000000000 0.04970036  0.00195136  0.1222819 0.7000
  1   -233.9798832193  -0.058683097180 0.03244037  0.00143569  0.0683545 0.7000
                               ***Turning on DIIS***
  2   -234.0070733468  -0.027190127488 0.05256406  0.00267061  0.0316065 0.0000
  3   -234.0461457922  -0.039072445482 0.02257199  0.00105911  0.0373586 0.0000
  4   -234.0557044000  -0.009558607716 0.00429206  0.00022041  0.0055980 0.0000
                      *** Initiating the SOSCF procedure ***
                           *** Shutting down DIIS ***
                      *** Re-Reading the Fockian *** 
                      *** Removing any level shift *** 
ITER      Energy       Delta-E        Grad      Rot      Max-DP    RMS-DP
  5   -234.05601216  -0.0003077573  0.000486  0.000486  0.001546  0.000079
               *** Restarting incremental Fock matrix formation ***
  6   -234.05606772  -0.0000555636  0.000221  0.000774  0.001010  0.000052
  7   -234.05606838  -0.0000006572  0.000296  0.000536  0.000507  0.000017
  8   -234.05606962  -0.0000012392  0.000110  0.000201  0.000287  0.000012
  9   -234.05606959   0.0000000243  0.000065  0.000070  0.000143  0.000006
 10   -234.05606980  -0.0000002084  0.000006  0.000008  0.000032  0.000002
 11   -234.05606980  -0.0000000003  0.000003  0.000003  0.000012  0.000001
                  ***Gradient check signals convergence***
              ***Rediagonalizing the Fockian in SOSCF/NRSCF***

               *****************************************************
               *                     SUCCESS                       *
               *           SCF CONVERGED AFTER  12 CYCLES          *
               *****************************************************

Old exchange energy                            =     -8.598820151 Eh
New exchange energy                            =     -8.598809451 Eh
Exchange energy change after final integration =      0.000010700 Eh
Total energy after final integration           =   -234.056059103 Eh
Final COS-X integration done in                =     0.725 sec

----------------
TOTAL SCF ENERGY
----------------

Total Energy       :         -234.05605910 Eh           -6368.98916 eV

Components:
Nuclear Repulsion  :          221.53460357 Eh            6028.26303 eV
Electronic Energy  :         -455.59066267 Eh          -12397.25220 eV
One Electron Energy:         -752.51074134 Eh          -20476.85830 eV
Two Electron Energy:          296.92007867 Eh            8079.60610 eV
Max COSX asymmetry :            0.00000313 Eh               0.00009 eV

Virial components:
Potential Energy   :         -465.08444102 Eh          -12655.59104 eV
Kinetic Energy     :          231.02838192 Eh            6286.60188 eV
Virial Ratio       :            2.01310522


DFT components:
N(Alpha)           :       22.999968761549 electrons
N(Beta)            :       22.999968761549 electrons
N(Total)           :       45.999937523098 electrons
E(X)               :      -25.693705825272 Eh       
E(C)               :       -1.485792693810 Eh       
E(XC)              :      -27.179498519082 Eh       
DFET-embed. en.    :        0.000000000000 Eh       

---------------
SCF CONVERGENCE
---------------

  Last Energy change         ...   -7.3075e-10  Tolerance :   1.0000e-08
  Last MAX-Density change    ...    5.3291e-15  Tolerance :   1.0000e-07
  Last RMS-Density change    ...    6.6222e-17  Tolerance :   5.0000e-09
  Last Orbital Gradient      ...    1.1619e-06  Tolerance :   1.0000e-05
  Last Orbital Rotation      ...    3.8987e-06  Tolerance :   1.0000e-05

             **** THE GBW FILE WAS UPDATED (TS_5ZPuRE_ll_ad_2-3_4-5_optts_orca.gbw) ****
             **** DENSITY TS_5ZPuRE_ll_ad_2-3_4-5_optts_orca.scfp WAS UPDATED ****
             **** ENERGY FILE WAS UPDATED (TS_5ZPuRE_ll_ad_2-3_4-5_optts_orca.en.tmp) ****
             **** THE GBW FILE WAS UPDATED (TS_5ZPuRE_ll_ad_2-3_4-5_optts_orca.gbw) ****
             **** DENSITY TS_5ZPuRE_ll_ad_2-3_4-5_optts_orca.scfp WAS UPDATED ****
----------------
ORBITAL ENERGIES
----------------

  NO   OCC          E(Eh)            E(eV) 
   0   2.0000     -10.246970      -278.8342 
   1   2.0000     -10.246716      -278.8273 
   2   2.0000     -10.244317      -278.7620 
   3   2.0000     -10.244290      -278.7613 
   4   2.0000     -10.227024      -278.2915 
   5   2.0000     -10.226196      -278.2689 
   6   2.0000      -0.813981       -22.1496 
   7   2.0000      -0.756421       -20.5833 
   8   2.0000      -0.725953       -19.7542 
   9   2.0000      -0.640206       -17.4209 
  10   2.0000      -0.595651       -16.2085 
  11   2.0000      -0.517895       -14.0926 
  12   2.0000      -0.481785       -13.1100 
  13   2.0000      -0.460157       -12.5215 
  14   2.0000      -0.426845       -11.6150 
  15   2.0000      -0.426228       -11.5983 
  16   2.0000      -0.422616       -11.5000 
  17   2.0000      -0.403729       -10.9860 
  18   2.0000      -0.379288       -10.3210 
  19   2.0000      -0.364260        -9.9120 
  20   2.0000      -0.284748        -7.7484 
  21   2.0000      -0.261335        -7.1113 
  22   2.0000      -0.227179        -6.1818 
  23   0.0000       0.000370         0.0101 
  24   0.0000       0.039484         1.0744 
  25   0.0000       0.062213         1.6929 
  26   0.0000       0.074056         2.0152 
  27   0.0000       0.107447         2.9238 
  28   0.0000       0.108475         2.9518 
  29   0.0000       0.122032         3.3207 
  30   0.0000       0.143176         3.8960 
  31   0.0000       0.153551         4.1783 
  32   0.0000       0.169275         4.6062 
  33   0.0000       0.170419         4.6373 
  34   0.0000       0.178160         4.8480 
  35   0.0000       0.190628         5.1873 
  36   0.0000       0.262347         7.1388 
  37   0.0000       0.281495         7.6599 
  38   0.0000       0.341009         9.2793 
  39   0.0000       0.403392        10.9769 
  40   0.0000       0.403896        10.9906 
  41   0.0000       0.437788        11.9128 
  42   0.0000       0.442749        12.0478 
  43   0.0000       0.467636        12.7250 
  44   0.0000       0.507498        13.8097 
  45   0.0000       0.520780        14.1712 
  46   0.0000       0.522121        14.2076 
  47   0.0000       0.544124        14.8064 
  48   0.0000       0.564008        15.3474 
  49   0.0000       0.588962        16.0265 
  50   0.0000       0.608321        16.5533 
  51   0.0000       0.628924        17.1139 
  52   0.0000       0.645527        17.5657 
  53   0.0000       0.652003        17.7419 
  54   0.0000       0.680623        18.5207 
  55   0.0000       0.684069        18.6145 
  56   0.0000       0.692663        18.8483 
  57   0.0000       0.700853        19.0712 
  58   0.0000       0.706094        19.2138 
  59   0.0000       0.712574        19.3901 
  60   0.0000       0.720484        19.6054 
  61   0.0000       0.730373        19.8745 
  62   0.0000       0.734805        19.9950 
  63   0.0000       0.734879        19.9971 
  64   0.0000       0.738492        20.0954 
  65   0.0000       0.742605        20.2073 
  66   0.0000       0.755124        20.5480 
  67   0.0000       0.839818        22.8526 
  68   0.0000       0.884280        24.0625 
  69   0.0000       0.973479        26.4897 
  70   0.0000       0.975654        26.5489 
  71   0.0000       1.061762        28.8920 
  72   0.0000       1.139516        31.0078 
  73   0.0000       1.166201        31.7339 
  74   0.0000       1.218736        33.1635 
  75   0.0000       1.256506        34.1913 
  76   0.0000       1.262541        34.3555 
  77   0.0000       1.269246        34.5379 
  78   0.0000       1.302890        35.4534 
  79   0.0000       1.447389        39.3855 
  80   0.0000       1.496885        40.7323 
  81   0.0000       1.548368        42.1332 
  82   0.0000       1.557458        42.3806 
  83   0.0000       1.578631        42.9567 
  84   0.0000       1.609380        43.7934 
  85   0.0000       1.657924        45.1144 
  86   0.0000       1.686540        45.8931 
  87   0.0000       1.702426        46.3254 
  88   0.0000       1.748438        47.5774 
  89   0.0000       1.753954        47.7275 
  90   0.0000       1.776153        48.3316 
  91   0.0000       1.785210        48.5780 
  92   0.0000       1.807739        49.1911 
  93   0.0000       1.824511        49.6475 
  94   0.0000       1.852396        50.4063 
  95   0.0000       1.879260        51.1373 
  96   0.0000       1.901084        51.7311 
  97   0.0000       1.912447        52.0403 
  98   0.0000       1.931191        52.5504 
  99   0.0000       1.946716        52.9728 
 100   0.0000       1.957460        53.2652 
 101   0.0000       1.986169        54.0464 
 102   0.0000       2.012150        54.7534 
 103   0.0000       2.046583        55.6904 
 104   0.0000       2.061119        56.0859 
 105   0.0000       2.093728        56.9732 
 106   0.0000       2.109250        57.3956 
 107   0.0000       2.148765        58.4709 
 108   0.0000       2.160394        58.7873 
 109   0.0000       2.253857        61.3306 
 110   0.0000       2.266540        61.6757 
 111   0.0000       2.275650        61.9236 
 112   0.0000       2.352020        64.0017 
 113   0.0000       2.374428        64.6115 
 114   0.0000       2.393726        65.1366 
 115   0.0000       2.440037        66.3968 
 116   0.0000       2.447191        66.5915 
 117   0.0000       2.469277        67.1924 
 118   0.0000       2.485619        67.6371 
 119   0.0000       2.622329        71.3572 
 120   0.0000       2.668381        72.6104 
 121   0.0000       2.715547        73.8938 
 122   0.0000       2.723749        74.1170 
 123   0.0000       2.844353        77.3988 
 124   0.0000       2.865527        77.9750 
 125   0.0000       2.888738        78.6065 
 126   0.0000       2.905290        79.0570 
 127   0.0000       2.954284        80.3902 
 128   0.0000       2.979978        81.0893 
 129   0.0000       3.014238        82.0216 
 130   0.0000       3.031424        82.4892 
 131   0.0000       3.044519        82.8456 
 132   0.0000       3.115618        84.7803 
 133   0.0000       3.313821        90.1737 

                    ********************************
                    * MULLIKEN POPULATION ANALYSIS *
                    ********************************

-----------------------
MULLIKEN ATOMIC CHARGES
-----------------------
   0 C :   -0.090189
   1 C :   -0.089458
   2 C :   -0.071922
   3 C :   -0.095782
   4 C :   -0.095762
   5 C :   -0.071546
   6 H :    0.028654
   7 H :    0.028694
   8 H :    0.055402
   9 H :    0.062349
  10 H :    0.056221
  11 H :    0.054712
  12 H :    0.054626
  13 H :    0.056098
  14 H :    0.062093
  15 H :    0.055808
Sum of atomic charges:    0.0000000

--------------------------------
MULLIKEN REDUCED ORBITAL CHARGES
--------------------------------
  0 C s       :     3.116492  s :     3.116492
      pz      :     1.011335  p :     2.936253
      px      :     1.001489
      py      :     0.923428
      dz2     :     0.002643  d :     0.037445
      dxz     :     0.008826
      dyz     :     0.001677
      dx2y2   :     0.013749
      dxy     :     0.010551
  1 C s       :     3.115758  s :     3.115758
      pz      :     1.012683  p :     2.936258
      px      :     0.984914
      py      :     0.938661
      dz2     :     0.002994  d :     0.037442
      dxz     :     0.006806
      dyz     :     0.003600
      dx2y2   :     0.009203
      dxy     :     0.014838
  2 C s       :     3.099496  s :     3.099496
      pz      :     0.989730  p :     2.945454
      px      :     1.010956
      py      :     0.944768
      dz2     :     0.003971  d :     0.026972
      dxz     :     0.007602
      dyz     :     0.005249
      dx2y2   :     0.005040
      dxy     :     0.005111
  3 C s       :     3.145250  s :     3.145250
      pz      :     0.999312  p :     2.922466
      px      :     0.951749
      py      :     0.971404
      dz2     :     0.008965  d :     0.028065
      dxz     :     0.006572
      dyz     :     0.002306
      dx2y2   :     0.003735
      dxy     :     0.006487
  4 C s       :     3.144811  s :     3.144811
      pz      :     0.995778  p :     2.922868
      px      :     0.958619
      py      :     0.968471
      dz2     :     0.008630  d :     0.028083
      dxz     :     0.006818
      dyz     :     0.002886
      dx2y2   :     0.004370
      dxy     :     0.005380
  5 C s       :     3.098830  s :     3.098830
      pz      :     0.992970  p :     2.945737
      px      :     0.994144
      py      :     0.958623
      dz2     :     0.004735  d :     0.026979
      dxz     :     0.010131
      dyz     :     0.001684
      dx2y2   :     0.004755
      dxy     :     0.005675
  6 H s       :     0.947388  s :     0.947388
      pz      :     0.005372  p :     0.023958
      px      :     0.004328
      py      :     0.014258
  7 H s       :     0.947350  s :     0.947350
      pz      :     0.004959  p :     0.023957
      px      :     0.009190
      py      :     0.009808
  8 H s       :     0.920472  s :     0.920472
      pz      :     0.012177  p :     0.024125
      px      :     0.007595
      py      :     0.004353
  9 H s       :     0.913480  s :     0.913480
      pz      :     0.010904  p :     0.024171
      px      :     0.006420
      py      :     0.006848
 10 H s       :     0.920110  s :     0.920110
      pz      :     0.013343  p :     0.023669
      px      :     0.004785
      py      :     0.005540
 11 H s       :     0.921270  s :     0.921270
      pz      :     0.004476  p :     0.024018
      px      :     0.008254
      py      :     0.011288
 12 H s       :     0.921361  s :     0.921361
      pz      :     0.005020  p :     0.024013
      px      :     0.013085
      py      :     0.005908
 13 H s       :     0.920239  s :     0.920239
      pz      :     0.013813  p :     0.023663
      px      :     0.005101
      py      :     0.004748
 14 H s       :     0.913754  s :     0.913754
      pz      :     0.011956  p :     0.024153
      px      :     0.007547
      py      :     0.004649
 15 H s       :     0.920044  s :     0.920044
      pz      :     0.012142  p :     0.024148
      px      :     0.007323
      py      :     0.004683


                     *******************************
                     * LOEWDIN POPULATION ANALYSIS *
                     *******************************

----------------------
LOEWDIN ATOMIC CHARGES
----------------------
   0 C :   -0.059075
   1 C :   -0.059225
   2 C :   -0.039577
   3 C :   -0.037675
   4 C :   -0.037940
   5 C :   -0.039751
   6 H :    0.031840
   7 H :    0.031841
   8 H :    0.027688
   9 H :    0.029543
  10 H :    0.024149
  11 H :    0.023381
  12 H :    0.023321
  13 H :    0.024095
  14 H :    0.029537
  15 H :    0.027848

-------------------------------
LOEWDIN REDUCED ORBITAL CHARGES
-------------------------------
  0 C s       :     2.862274  s :     2.862274
      pz      :     0.984563  p :     3.101052
      px      :     1.078091
      py      :     1.038398
      dz2     :     0.006362  d :     0.095749
      dxz     :     0.017707
      dyz     :     0.003638
      dx2y2   :     0.037223
      dxy     :     0.030819
  1 C s       :     2.862186  s :     2.862186
      pz      :     0.985344  p :     3.101263
      px      :     1.076643
      py      :     1.039277
      dz2     :     0.006935  d :     0.095776
      dxz     :     0.014051
      dyz     :     0.007383
      dx2y2   :     0.026461
      dxy     :     0.040946
  2 C s       :     2.895034  s :     2.895034
      pz      :     1.062067  p :     3.079081
      px      :     1.004624
      py      :     1.012391
      dz2     :     0.010995  d :     0.065462
      dxz     :     0.017986
      dyz     :     0.013263
      dx2y2   :     0.010902
      dxy     :     0.012317
  3 C s       :     2.895758  s :     2.895758
      pz      :     1.056523  p :     3.073522
      px      :     1.009160
      py      :     1.007838
      dz2     :     0.021587  d :     0.068395
      dxz     :     0.017184
      dyz     :     0.005657
      dx2y2   :     0.007750
      dxy     :     0.016217
  4 C s       :     2.895751  s :     2.895751
      pz      :     1.064005  p :     3.073757
      px      :     1.054241
      py      :     0.955510
      dz2     :     0.021318  d :     0.068432
      dxz     :     0.019324
      dyz     :     0.005344
      dx2y2   :     0.011411
      dxy     :     0.011034
  5 C s       :     2.895107  s :     2.895107
      pz      :     1.066693  p :     3.079182
      px      :     1.038600
      py      :     0.973888
      dz2     :     0.013449  d :     0.065462
      dxz     :     0.025461
      dyz     :     0.002744
      dx2y2   :     0.010325
      dxy     :     0.013482
  6 H s       :     0.898198  s :     0.898198
      pz      :     0.016541  p :     0.069963
      px      :     0.012831
      py      :     0.040591
  7 H s       :     0.898209  s :     0.898209
      pz      :     0.015538  p :     0.069950
      px      :     0.024783
      py      :     0.029629
  8 H s       :     0.898997  s :     0.898997
      pz      :     0.034541  p :     0.073315
      px      :     0.024601
      py      :     0.014173
  9 H s       :     0.896997  s :     0.896997
      pz      :     0.031701  p :     0.073459
      px      :     0.020777
      py      :     0.020981
 10 H s       :     0.904123  s :     0.904123
      pz      :     0.039958  p :     0.071729
      px      :     0.015466
      py      :     0.016305
 11 H s       :     0.903696  s :     0.903696
      pz      :     0.012772  p :     0.072923
      px      :     0.024953
      py      :     0.035198
 12 H s       :     0.903768  s :     0.903768
      pz      :     0.014238  p :     0.072911
      px      :     0.038612
      py      :     0.020060
 13 H s       :     0.904204  s :     0.904204
      pz      :     0.040742  p :     0.071700
      px      :     0.014527
      py      :     0.016431
 14 H s       :     0.897084  s :     0.897084
      pz      :     0.034197  p :     0.073379
      px      :     0.022678
      py      :     0.016505
 15 H s       :     0.898758  s :     0.898758
      pz      :     0.034674  p :     0.073393
      px      :     0.022098
      py      :     0.016622


                      *****************************
                      * MAYER POPULATION ANALYSIS *
                      *****************************

  NA   - Mulliken gross atomic population
  ZA   - Total nuclear charge
  QA   - Mulliken gross atomic charge
  VA   - Mayer's total valence
  BVA  - Mayer's bonded valence
  FA   - Mayer's free valence

  ATOM       NA         ZA         QA         VA         BVA        FA
  0 C      6.0902     6.0000    -0.0902     4.0458     4.0458    -0.0000
  1 C      6.0895     6.0000    -0.0895     4.0459     4.0459    -0.0000
  2 C      6.0719     6.0000    -0.0719     3.9322     3.9322     0.0000
  3 C      6.0958     6.0000    -0.0958     4.0064     4.0064     0.0000
  4 C      6.0958     6.0000    -0.0958     4.0061     4.0061    -0.0000
  5 C      6.0715     6.0000    -0.0715     3.9318     3.9318     0.0000
  6 H      0.9713     1.0000     0.0287     0.9800     0.9800     0.0000
  7 H      0.9713     1.0000     0.0287     0.9800     0.9800    -0.0000
  8 H      0.9446     1.0000     0.0554     0.9753     0.9753    -0.0000
  9 H      0.9377     1.0000     0.0623     0.9746     0.9746    -0.0000
 10 H      0.9438     1.0000     0.0562     0.9728     0.9728     0.0000
 11 H      0.9453     1.0000     0.0547     0.9681     0.9681     0.0000
 12 H      0.9454     1.0000     0.0546     0.9680     0.9680    -0.0000
 13 H      0.9439     1.0000     0.0561     0.9727     0.9727    -0.0000
 14 H      0.9379     1.0000     0.0621     0.9745     0.9745    -0.0000
 15 H      0.9442     1.0000     0.0558     0.9755     0.9755     0.0000

  Mayer bond orders larger than 0.100000
B(  0-C ,  1-C ) :   1.9745 B(  0-C ,  5-C ) :   1.0518 B(  0-C ,  6-H ) :   0.9435 
B(  1-C ,  2-C ) :   1.0523 B(  1-C ,  7-H ) :   0.9436 B(  2-C ,  3-C ) :   0.9534 
B(  2-C ,  8-H ) :   0.9484 B(  2-C ,  9-H ) :   0.9456 B(  3-C ,  4-C ) :   1.1218 
B(  3-C , 10-H ) :   0.9620 B(  3-C , 11-H ) :   0.9518 B(  4-C ,  5-C ) :   0.9537 
B(  4-C , 12-H ) :   0.9518 B(  4-C , 13-H ) :   0.9619 B(  5-C , 14-H ) :   0.9455 
B(  5-C , 15-H ) :   0.9483 


------------------
HIRSHFELD ANALYSIS
------------------

Total integrated alpha density =     22.999968761
Total integrated beta density  =     22.999968761

  ATOM     CHARGE      SPIN    
   0 C   -0.046457    0.000000
   1 C   -0.046551    0.000000
   2 C   -0.043752    0.000000
   3 C   -0.040947    0.000000
   4 C   -0.040987    0.000000
   5 C   -0.043795    0.000000
   6 H    0.028590    0.000000
   7 H    0.028600    0.000000
   8 H    0.026412    0.000000
   9 H    0.026679    0.000000
  10 H    0.025742    0.000000
  11 H    0.023911    0.000000
  12 H    0.023845    0.000000
  13 H    0.025653    0.000000
  14 H    0.026595    0.000000
  15 H    0.026524    0.000000

  TOTAL   0.000062    0.000000

-------
TIMINGS
-------

Total SCF time: 0 days 0 hours 0 min 6 sec 

Total time                  ....       6.933 sec
Sum of individual times     ....       6.780 sec  ( 97.8%)

Fock matrix formation       ....       5.935 sec  ( 85.6%)
  Split-RI-J                ....       0.606 sec  ( 10.2% of F)
  Chain of spheres X        ....       4.040 sec  ( 68.1% of F)
  XC integration            ....       1.247 sec  ( 21.0% of F)
    Basis function eval.    ....       0.478 sec  ( 38.3% of XC)
    Density eval.           ....       0.253 sec  ( 20.3% of XC)
    XC-Functional eval.     ....       0.105 sec  (  8.4% of XC)
    XC-Potential eval.      ....       0.225 sec  ( 18.1% of XC)
Diagonalization             ....       0.033 sec  (  0.5%)
Density matrix formation    ....       0.003 sec  (  0.0%)
Population analysis         ....       0.128 sec  (  1.8%)
Initial guess               ....       0.054 sec  (  0.8%)
Orbital Transformation      ....       0.000 sec  (  0.0%)
Orbital Orthonormalization  ....       0.000 sec  (  0.0%)
DIIS solution               ....       0.025 sec  (  0.4%)
SOSCF solution              ....       0.030 sec  (  0.4%)
Grid generation             ....       0.572 sec  (  8.2%)

Maximum memory used throughout the entire SCF-calculation: 50.3 MB


-------------------------------------------------------------------------------
                          DFT DISPERSION CORRECTION                            
                                                                               
                              DFTD3 V3.1  Rev 1                                
                          USING Becke-Johnson damping                          
-------------------------------------------------------------------------------
The PBE0 functional is recognized
Active option DFTDOPT                   ...         4   

molecular C6(AA) [au] = 2234.603368 


            DFT-D V3
 parameters
 s6 scaling factor         :     1.0000 
 a1 scaling factor         :     0.4145 
 s8 scaling factor         :     1.2177 
 a2 scaling factor         :     4.8593 
 ad hoc parameters k1-k3   :    16.0000     1.3333    -4.0000 

 Edisp/kcal,au: -7.759462507589  -0.012365489288 
 E6   /kcal   :  -4.948340962 
 E8   /kcal   :  -2.811121546 
 % E8         :  36.228302452 

-------------------------   ----------------
Dispersion correction           -0.012365489
-------------------------   ----------------


-------------------------   --------------------
FINAL SINGLE POINT ENERGY      -234.068424592145
-------------------------   --------------------



           ************************************************************
           *        Program running with 8 parallel MPI-processes     *
           *              working on a common directory               *
           ************************************************************
------------------------------------------------------------------------------
                         ORCA SCF GRADIENT CALCULATION
------------------------------------------------------------------------------

 ... reading COSX grid (gridx3)
Gradient of the Kohn-Sham DFT energy:
Kohn-Sham wavefunction type      ... RKS
Hartree-Fock exchange scaling    ...    0.250
Number of operators              ...    1
Number of atoms                  ...   16
Basis set dimensions             ...  134
Integral neglect threshold       ... 2.5e-11
Integral primitive cutoff        ... 2.5e-12
SHARK Integral package           ... ON

Nuc. rep. gradient       (SHARK) ... done (  0.0 sec)
HCore & Overlap gradient (SHARK) ... done (  0.0 sec)
RI-J gradient            (SHARK) ... done (  0.1 sec)
COSX-gradient                    ... done (  0.9 sec)
Exchange-correlation gradient    ... done
Dispersion correction            ... done

------------------
CARTESIAN GRADIENT
------------------

   1   C   :   -0.013223177   -0.001364840    0.001385931
   2   C   :    0.011994005    0.005368494   -0.001901974
   3   C   :   -0.064230060    0.049148998   -0.019752451
   4   C   :    0.057530686   -0.054533045    0.024728824
   5   C   :   -0.018381625   -0.080848104   -0.003908682
   6   C   :    0.027485880    0.078614301   -0.000161136
   7   H   :    0.001283204   -0.008803384    0.000820277
   8   H   :    0.003523062   -0.008077737    0.001429479
   9   H   :    0.008713136   -0.000044789   -0.007417966
  10   H   :    0.007957878    0.004617114    0.007914006
  11   H   :   -0.002965390   -0.000656572   -0.011310282
  12   H   :    0.004282663    0.010727558   -0.001576341
  13   H   :   -0.009379709    0.006835798   -0.001132112
  14   H   :    0.001996883    0.004152740    0.010676069
  15   H   :   -0.008673979   -0.002682850   -0.007912390
  16   H   :   -0.007782099   -0.002501002    0.008127085

Difference to translation invariance:
           :    0.0001313586   -0.0000473208    0.0000083371

Difference to rotation invariance:
           :   -0.0004953487    0.0005473739   -0.0001086466

Norm of the cartesian gradient     ...    0.1710747103
RMS gradient                       ...    0.0246925075
MAX gradient                       ...    0.0808481038

-------
TIMINGS
-------

Total SCF gradient time            ...        1.969 sec

One electron gradient       ....       0.023 sec  (  1.2%)
RI-J Coulomb gradient       ....       0.146 sec  (  7.4%)
COSX gradient               ....       0.918 sec  ( 46.6%)
XC gradient                 ....       0.605 sec  ( 30.7%)

Maximum memory used throughout the entire SCFGRAD-calculation: 38.8 MB


           ************************************************************
           *        Program running with 8 parallel MPI-processes     *
           *              working on a common directory               *
           ************************************************************

-------------------------------------------------------------------------------
                               ORCA SCF HESSIAN
-------------------------------------------------------------------------------

                   --------- SHARK INITIALIZATION DONE ---------

Hessian of the Kohn-Sham DFT energy:
Kohn-Sham wavefunction type                      ... RKS
Hartree-Fock exchange scaling                    ...    0.250
Number of operators                              ...    1
Number of atoms                                  ...   16
Basis set dimensions                             ...  134
Integral neglect threshold                       ... 2.5e-11
Integral primitive cutoff                        ... 2.5e-12

Setting up DFT Hessian calculations              ... 

HESS GRID
---------

General Integration Accuracy     IntAcc      ... 4.629
Radial Grid Type                 RadialGrid  ... OptM3 with GC (2021)
Angular Grid (max. ang.)         AngularGrid ... 5 (Lebedev-434)
Angular grid pruning method      GridPruning ... 4 (adaptive)
Weight generation scheme         WeightScheme... Becke
Basis function cutoff            BFCut       ... 1.0000e-11
Integration weight cutoff        WCut        ... 1.0000e-14
Angular grids for H and He will be reduced by one unit
Partially contracted basis set               ... off
Rotationally invariant grid construction     ... off

Total number of grid points                  ...   105984
Total number of batches                      ...     1665
Average number of points per batch           ...       63
Average number of grid points per atom       ...     6624

Building densities                               ... done   (      0.0 sec)
Calculating rho(r) on the grid                   ... done   (      0.1 sec)
Building xc-kernel on the grid                   ... done   (      0.0 sec)
                                                     done   (      0.9 sec)

Nuclear repulsion Hessian  (SHARK)               ... done   (      0.0 sec)

----------------------------------------------
Forming right-hand sides of CP-SCF equations     ...
----------------------------------------------
One electron integral derivatives  (SHARK)       ... done   (      0.0 sec)
Transforming the overlap derivative matrices     ... done   (      0.0 sec)
Making the Q(x) pseudodensities                  ... done   (      0.0 sec)
Adding the E*S(x)*S(y) terms to the Hessian      ... done   (      0.0 sec)
Calculating energy weighted overlap derivatives  ... done   (      0.0 sec)
Two electron integral derivatives (SHARK-RI)     ... done   (      2.0 sec)
Exchange-correlation integral derivatives        ... done   (      8.2 sec)
tr(F(y)Q(x)) contribution to the Hessian         ... done   (      0.0 sec)
Response fock operator R(S(x)) (SHARK-RIJCOSX)   ... done   (      2.2 sec)
XC Response fock operator R(S(x))                ... done   (      2.7 sec)
tr(F(y)S(x)) contribution to the Hessian         ... done   (      0.0 sec)
Transforming and finalizing RHSs                 ... done   (      0.0 sec)

----------------------------------------------
Solving the CP-SCF equations (RIJCOSX)           ...
----------------------------------------------
     CP-SCF ITERATION   0:   2.6188e-01 (   1.1 sec   0/ 48 done)
     CP-SCF ITERATION   1:   4.6400e-02 (   1.1 sec   0/ 48 done)
     CP-SCF ITERATION   2:   1.0373e-02 (   1.1 sec   0/ 48 done)
     CP-SCF ITERATION   3:   3.1387e-03 (   1.1 sec   0/ 48 done)
     CP-SCF ITERATION   4:   1.2095e-03 (   1.1 sec   0/ 48 done)
     CP-SCF ITERATION   5:   3.4010e-04 (   1.1 sec  12/ 48 done)
     CP-SCF ITERATION   6:   1.3273e-04 (   0.9 sec  43/ 48 done)
     CP-SCF ITERATION   7:   2.5971e-05 (   0.4 sec  48/ 48 done)
                    *** THE CP-SCF HAS CONVERGED ***

                                                 ... done   (      8.2 sec)
Forming perturbed density Hessian contributions  ... done   (      0.0 sec)
2nd integral derivative contribs (SHARK-RI)      ... done   (     10.1 sec)
Exchange-correlation Hessian                     ... done   (      7.4 sec)
Dispersion correction in the Hessian             ... done   (      0.5 sec)
Dipole derivatives                               ... (center of mass: -0.064410,  0.221987 -0.032562)done   (      0.1 sec)

Total SCF Hessian time: 0 days 0 hours 0 min 42 sec 

Writing the Hessian file to the disk             ... done


Maximum memory used throughout the entire SCFHESS-calculation: 94.8 MB

-----------------------
VIBRATIONAL FREQUENCIES
-----------------------

Scaling factor for frequencies =  1.000000000  (already applied!)

   0:         0.00 cm**-1
   1:         0.00 cm**-1
   2:         0.00 cm**-1
   3:         0.00 cm**-1
   4:         0.00 cm**-1
   5:         0.00 cm**-1
   6:      -272.41 cm**-1 ***imaginary mode***
   7:      -262.52 cm**-1 ***imaginary mode***
   8:      -172.38 cm**-1 ***imaginary mode***
   9:        83.54 cm**-1
  10:       289.66 cm**-1
  11:       299.49 cm**-1
  12:       433.25 cm**-1
  13:       511.33 cm**-1
  14:       578.09 cm**-1
  15:       623.80 cm**-1
  16:       682.04 cm**-1
  17:       780.45 cm**-1
  18:       807.61 cm**-1
  19:       903.43 cm**-1
  20:       917.43 cm**-1
  21:       921.34 cm**-1
  22:       952.06 cm**-1
  23:       955.73 cm**-1
  24:      1003.93 cm**-1
  25:      1039.28 cm**-1
  26:      1054.93 cm**-1
  27:      1057.38 cm**-1
  28:      1127.50 cm**-1
  29:      1161.76 cm**-1
  30:      1206.10 cm**-1
  31:      1240.31 cm**-1
  32:      1373.86 cm**-1
  33:      1393.73 cm**-1
  34:      1394.20 cm**-1
  35:      1428.31 cm**-1
  36:      1447.71 cm**-1
  37:      1814.50 cm**-1
  38:      3222.59 cm**-1
  39:      3242.75 cm**-1
  40:      3254.50 cm**-1
  41:      3256.11 cm**-1
  42:      3258.44 cm**-1
  43:      3262.33 cm**-1
  44:      3353.57 cm**-1
  45:      3354.33 cm**-1
  46:      3363.17 cm**-1
  47:      3377.52 cm**-1


------------
NORMAL MODES
------------

These modes are the Cartesian displacements weighted by the diagonal matrix
M(i,i)=1/sqrt(m[i]) where m[i] is the mass of the displaced atom
Thus, these vectors are normalized but *not* orthogonal

                  0          1          2          3          4          5    
      0       0.000000   0.000000   0.000000   0.000000   0.000000   0.000000
      1       0.000000   0.000000   0.000000   0.000000   0.000000   0.000000
      2       0.000000   0.000000   0.000000   0.000000   0.000000   0.000000
      3       0.000000   0.000000   0.000000   0.000000   0.000000   0.000000
      4       0.000000   0.000000   0.000000   0.000000   0.000000   0.000000
      5       0.000000   0.000000   0.000000   0.000000   0.000000   0.000000
      6       0.000000   0.000000   0.000000   0.000000   0.000000   0.000000
      7       0.000000   0.000000   0.000000   0.000000   0.000000   0.000000
      8       0.000000   0.000000   0.000000   0.000000   0.000000   0.000000
      9       0.000000   0.000000   0.000000   0.000000   0.000000   0.000000
     10       0.000000   0.000000   0.000000   0.000000   0.000000   0.000000
     11       0.000000   0.000000   0.000000   0.000000   0.000000   0.000000
     12       0.000000   0.000000   0.000000   0.000000   0.000000   0.000000
     13       0.000000   0.000000   0.000000   0.000000   0.000000   0.000000
     14       0.000000   0.000000   0.000000   0.000000   0.000000   0.000000
     15       0.000000   0.000000   0.000000   0.000000   0.000000   0.000000
     16       0.000000   0.000000   0.000000   0.000000   0.000000   0.000000
     17       0.000000   0.000000   0.000000   0.000000   0.000000   0.000000
     18       0.000000   0.000000   0.000000   0.000000   0.000000   0.000000
     19       0.000000   0.000000   0.000000   0.000000   0.000000   0.000000
     20       0.000000   0.000000   0.000000   0.000000   0.000000   0.000000
     21       0.000000   0.000000   0.000000   0.000000   0.000000   0.000000
     22       0.000000   0.000000   0.000000   0.000000   0.000000   0.000000
     23       0.000000   0.000000   0.000000   0.000000   0.000000   0.000000
     24       0.000000   0.000000   0.000000   0.000000   0.000000   0.000000
     25       0.000000   0.000000   0.000000   0.000000   0.000000   0.000000
     26       0.000000   0.000000   0.000000   0.000000   0.000000   0.000000
     27       0.000000   0.000000   0.000000   0.000000   0.000000   0.000000
     28       0.000000   0.000000   0.000000   0.000000   0.000000   0.000000
     29       0.000000   0.000000   0.000000   0.000000   0.000000   0.000000
     30       0.000000   0.000000   0.000000   0.000000   0.000000   0.000000
     31       0.000000   0.000000   0.000000   0.000000   0.000000   0.000000
     32       0.000000   0.000000   0.000000   0.000000   0.000000   0.000000
     33       0.000000   0.000000   0.000000   0.000000   0.000000   0.000000
     34       0.000000   0.000000   0.000000   0.000000   0.000000   0.000000
     35       0.000000   0.000000   0.000000   0.000000   0.000000   0.000000
     36       0.000000   0.000000   0.000000   0.000000   0.000000   0.000000
     37       0.000000   0.000000   0.000000   0.000000   0.000000   0.000000
     38       0.000000   0.000000   0.000000   0.000000   0.000000   0.000000
     39       0.000000   0.000000   0.000000   0.000000   0.000000   0.000000
     40       0.000000   0.000000   0.000000   0.000000   0.000000   0.000000
     41       0.000000   0.000000   0.000000   0.000000   0.000000   0.000000
     42       0.000000   0.000000   0.000000   0.000000   0.000000   0.000000
     43       0.000000   0.000000   0.000000   0.000000   0.000000   0.000000
     44       0.000000   0.000000   0.000000   0.000000   0.000000   0.000000
     45       0.000000   0.000000   0.000000   0.000000   0.000000   0.000000
     46       0.000000   0.000000   0.000000   0.000000   0.000000   0.000000
     47       0.000000   0.000000   0.000000   0.000000   0.000000   0.000000
                  6          7          8          9         10         11    
      0      -0.004803  -0.012783   0.000779   0.000820  -0.036169  -0.028525
      1       0.053323   0.041937  -0.114672  -0.009772   0.009585  -0.045277
      2       0.064826  -0.058916  -0.028624  -0.011833  -0.197019   0.036978
      3      -0.019993  -0.013999  -0.056852   0.003366   0.016001  -0.049287
      4       0.064654   0.016663   0.086239  -0.003982   0.073274   0.038848
      5       0.033676  -0.077538  -0.056325   0.013145   0.180657   0.043496
      6      -0.127816  -0.047423  -0.230265  -0.016667   0.046239  -0.060557
      7       0.100163   0.080274   0.194216   0.017729   0.011601   0.035325
      8      -0.123777   0.085409  -0.008025   0.060763   0.000236  -0.024553
      9       0.108298   0.052812   0.240365  -0.091146  -0.014641   0.033428
     10      -0.155351  -0.128698  -0.159052  -0.045812  -0.048241   0.129121
     11       0.088476  -0.013983   0.050347  -0.104832  -0.011903  -0.075805
     12       0.021457  -0.006955   0.113804   0.094670   0.024582   0.104920
     13      -0.173186  -0.160677   0.267785   0.041858  -0.017567  -0.111679
     14       0.051962  -0.039476  -0.017606   0.105515   0.027530  -0.037926
     15       0.012294   0.042002  -0.093609   0.008103  -0.040976  -0.033720
     16       0.104832   0.148325  -0.280665   0.003604  -0.007251  -0.065512
     17      -0.102787   0.091135   0.066214  -0.063222   0.000473  -0.009322
     18       0.002633  -0.101434   0.178192  -0.009415  -0.028202   0.035773
     19       0.107884   0.011954  -0.157846  -0.009971  -0.020093  -0.048732
     20       0.330882  -0.303680  -0.047887  -0.024424  -0.332911   0.082244
     21       0.058964  -0.040364   0.072622   0.013046   0.011107   0.000467
     22       0.152704  -0.020088   0.208820   0.005999   0.075301   0.087396
[...]
     36       0.298542   0.269489  -0.003487  -0.369514   0.044594   0.261046
     37       0.027312  -0.046648   0.003108   0.145093  -0.033633  -0.197097
     38      -0.193037  -0.148379  -0.001510   0.313381  -0.032066  -0.278669
     39       0.319207   0.295997   0.007169  -0.434994   0.051369   0.342781
     40       0.148165   0.053052   0.008865  -0.130279   0.009015   0.103609
     41      -0.024242   0.047005  -0.003651  -0.182624   0.029588   0.234619
     42       0.022187   0.013525  -0.011216  -0.001818   0.016483  -0.060148
     43      -0.068653   0.006366  -0.293038   0.001702   0.351212  -0.069937
     44      -0.056284   0.103964  -0.372243  -0.003970   0.386540  -0.129134
     45       0.203350  -0.232783   0.363698   0.009192  -0.352490   0.190446
     46      -0.217909   0.122185  -0.050103  -0.007854   0.015532   0.042083
     47      -0.044818   0.158198  -0.192700  -0.001085   0.154087  -0.132411
                 36         37         38         39         40         41    
      0       0.111895  -0.248237  -0.002630   0.008061  -0.016630  -0.000063
      1      -0.135929   0.058504  -0.002521   0.007264  -0.019967  -0.000859
      2      -0.142856   0.132990  -0.001338   0.004144  -0.012795  -0.001014
      3       0.131192   0.222935  -0.002349  -0.007252  -0.013057  -0.000255
      4       0.197311   0.139130   0.001517   0.004468   0.013158  -0.000719
      5       0.075841  -0.019992   0.002885   0.009231   0.021047  -0.000777
      6      -0.113346  -0.101351   0.007652   0.031702   0.027963  -0.005188
      7      -0.169320  -0.105740   0.007328   0.029231   0.023073  -0.002450
      8      -0.068175  -0.034053   0.004722   0.018769   0.011813  -0.001955
      9       0.011631   0.171443  -0.034789  -0.005915   0.008529  -0.042933
     10      -0.002429   0.031299  -0.022681  -0.003189   0.005204  -0.024942
     11      -0.001031  -0.047580   0.010739   0.001207  -0.003426   0.014583
     12      -0.008235  -0.167937  -0.040428   0.007586   0.009724   0.050133
     13       0.002675  -0.041744   0.006497  -0.000725  -0.001137  -0.005134
     14       0.000284   0.052615   0.011397  -0.002682  -0.001933  -0.012783
     15      -0.104682   0.112702   0.005848  -0.024187   0.025454   0.003879
     16       0.114120  -0.077090  -0.004108   0.016164  -0.012857  -0.000483
     17       0.126174  -0.109304  -0.008267   0.033846  -0.029008  -0.004583
     18      -0.388700   0.214382   0.025340  -0.073587   0.177898   0.007979
     19      -0.004738  -0.093279   0.037026  -0.108466   0.262420   0.010790
     20       0.116950  -0.102049   0.024259  -0.072315   0.175875   0.008137
     21      -0.375490  -0.137968   0.021350   0.064137   0.138316  -0.004644
     22      -0.170977  -0.158358  -0.028179  -0.086609  -0.187842   0.006075
     23       0.105429   0.002802  -0.039186  -0.120745  -0.262201   0.009816
     24      -0.080458  -0.069914  -0.108083  -0.459441  -0.398860   0.069759
     25       0.167358   0.040151  -0.028237  -0.116904  -0.100781   0.016669
     26       0.284250   0.163484   0.048371   0.202640   0.176096  -0.029842
     27       0.327085   0.311846   0.027077   0.111183   0.083346  -0.012711
     28       0.096282   0.102719  -0.047135  -0.196435  -0.143975   0.022774
     29      -0.109387  -0.042281  -0.101328  -0.414394  -0.303551   0.049748
     30      -0.011983  -0.177882   0.125273   0.014778  -0.033672   0.130684
     31       0.005145  -0.150273  -0.091958  -0.010685   0.024393  -0.093080
     32      -0.012611  -0.143420  -0.400908  -0.046212   0.105762  -0.414913
     33      -0.013161  -0.109754   0.286418   0.037160  -0.067653   0.286314
     34       0.018248   0.078139   0.358756   0.044703  -0.085458   0.359677
     35       0.000918   0.229713   0.277051   0.034101  -0.066566   0.275501
     36       0.011444   0.117745   0.267752  -0.039760  -0.068642  -0.282462
     37      -0.016702  -0.085834   0.175391  -0.026095  -0.045053  -0.182415
     38      -0.006822  -0.230951   0.282386  -0.041470  -0.071671  -0.295446
     39       0.014054   0.173473   0.209199  -0.033646  -0.047092  -0.212983
     40      -0.007955   0.140789  -0.251017   0.038225   0.057795   0.254949
     41       0.018789   0.144596  -0.420099   0.065373   0.096349   0.424275
     42      -0.134878   0.140945  -0.112078   0.476429  -0.463881  -0.075176
     43      -0.207013   0.106648  -0.018882   0.083241  -0.081798  -0.014195
     44      -0.205389   0.131148   0.017747  -0.078089   0.075821   0.013129
     45       0.313038  -0.338417   0.052474  -0.216351   0.179991   0.026827
     46       0.043751  -0.032638   0.060661  -0.255022   0.211240   0.030870
     47      -0.075792   0.148709   0.071745  -0.297637   0.244502   0.037386
                 42         43         44         45         46         47    
      0      -0.021438   0.030486   0.000735  -0.003036   0.002704  -0.000174
      1      -0.039495   0.044795   0.001208  -0.004924   0.004031  -0.000235
      2      -0.027497   0.028732   0.001080  -0.003251   0.002455  -0.000096
      3      -0.016918  -0.025263   0.000486   0.002555   0.002224   0.000170
      4       0.031289   0.033056  -0.001013  -0.003890  -0.002858  -0.000165
      5       0.038842   0.045387  -0.001502  -0.005048  -0.003794  -0.000200
      6      -0.015066  -0.004185   0.011819   0.046008   0.041559   0.004592
      7      -0.018212  -0.010188  -0.001827  -0.007648  -0.009022  -0.001069
      8      -0.014150  -0.010513  -0.013528  -0.053213  -0.051135  -0.005544
      9      -0.001728   0.000748   0.005479  -0.000283  -0.002042  -0.005722
     10      -0.001026   0.000214   0.032442   0.002784  -0.008967  -0.033904
     11       0.001428   0.000252   0.059596   0.006350  -0.015121  -0.061443
     12      -0.002564  -0.000523  -0.014486   0.002732   0.002823  -0.014755
     13       0.000149  -0.000060  -0.034413   0.004116   0.009027  -0.035868
     14      -0.000172   0.000622  -0.056870   0.006751   0.014620  -0.058705
     15      -0.011475   0.001731   0.014719  -0.058101   0.057267  -0.006011
     16       0.012839  -0.008959   0.007316  -0.029300   0.030826  -0.003341
     17       0.022294  -0.012248   0.005246  -0.021091   0.023410  -0.002414
     18       0.289393  -0.334659  -0.008517   0.032213  -0.029702   0.002352
     19       0.434699  -0.492634  -0.012627   0.049020  -0.044258   0.003893
     20       0.293057  -0.331310  -0.008747   0.032784  -0.030597   0.002610
     21       0.231903   0.269353  -0.007075  -0.026894  -0.022601  -0.001905
     22      -0.323789  -0.365731   0.009915   0.037981   0.031844   0.003000
     23      -0.447602  -0.512021   0.013977   0.051909   0.044822   0.003886
     24       0.210765   0.060379  -0.112706  -0.435717  -0.388064  -0.041921
     25       0.053832   0.017008  -0.030282  -0.116629  -0.104487  -0.011146
     26      -0.093405  -0.026224   0.047366   0.184001   0.161668   0.017581
     27      -0.065178  -0.036659  -0.027795  -0.109542  -0.111173  -0.011603
     28       0.116040   0.065873   0.054291   0.219246   0.214368   0.023667
     29       0.242199   0.137788   0.111346   0.451327   0.443505   0.051346
     30       0.009422  -0.000314   0.165552   0.019439  -0.039871  -0.167727
     31      -0.006373   0.000919  -0.105475  -0.012640   0.024834   0.107147
     32      -0.029946   0.001077  -0.497764  -0.054716   0.122996   0.502112
     33       0.013629  -0.003841  -0.230545  -0.017794   0.064481   0.243976
     34       0.018386  -0.004399  -0.284206  -0.022682   0.079149   0.298024
     35       0.014039  -0.003470  -0.210247  -0.015386   0.060267   0.222841
     36       0.021044   0.000475   0.345432  -0.045664  -0.083584   0.348929
     37       0.013184   0.001099   0.214823  -0.029424  -0.050635   0.217813
     38       0.021861   0.000870   0.346592  -0.044753  -0.084647   0.349522
     39       0.010571   0.002773  -0.174661   0.018051   0.047301  -0.183447
     40      -0.013952  -0.002959   0.197999  -0.020273  -0.054497   0.206864
     41      -0.021988  -0.005379   0.329479  -0.032168  -0.092170   0.348333
     42       0.238383  -0.068664  -0.116378   0.456371  -0.436063   0.045350
     43       0.041479  -0.010373  -0.018777   0.074134  -0.070163   0.007439
     44      -0.038670   0.011716   0.021241  -0.082394   0.080906  -0.008311
     45      -0.135493   0.075479  -0.056745   0.230171  -0.246346   0.026948
     46      -0.161262   0.089861  -0.069901   0.284347  -0.300661   0.032005
     47      -0.186731   0.104578  -0.082013   0.337553  -0.354466   0.040075


-----------
IR SPECTRUM
-----------

 Mode   freq       eps      Int      T**2         TX        TY        TZ
       cm**-1   L/(mol*cm) km/mol    a.u.
----------------------------------------------------------------------------
  7:    131.62   0.000154    0.78  0.000365  (-0.017966 -0.003640  0.005351)
  8:    201.55   0.000276    1.40  0.000428  ( 0.019394  0.004269 -0.005806)
  9:    277.56   0.000091    0.46  0.000102  (-0.003387  0.006365 -0.007056)
 10:    366.86   0.000027    0.14  0.000023  (-0.001615  0.003826 -0.002428)
 11:    396.11   0.000511    2.58  0.000402  (-0.018861 -0.003974  0.005551)
 12:    477.31   0.000004    0.02  0.000002  ( 0.001474  0.000353 -0.000442)
 13:    582.33   0.000000    0.00  0.000000  (-0.000466 -0.000107  0.000132)
 14:    594.98   0.000311    1.57  0.000163  (-0.004247  0.005475 -0.010741)
 15:    679.11   0.005992   30.28  0.002753  (-0.017500  0.037836 -0.031867)
 16:    777.80   0.000119    0.60  0.000048  ( 0.006568  0.001219 -0.001773)
 17:    807.24   0.000136    0.68  0.000052  (-0.001209 -0.003187 -0.006386)
 18:    833.29   0.000101    0.51  0.000038  (-0.000981  0.005972  0.001047)
 19:    905.70   0.001354    6.84  0.000467  (-0.020294 -0.004296  0.006018)
 20:    939.69   0.003276   16.56  0.001088  (-0.010172  0.028055 -0.014052)
 21:    971.04   0.001304    6.59  0.000419  ( 0.006878 -0.014325  0.012903)
 22:    979.36   0.000099    0.50  0.000031  ( 0.005525  0.000231 -0.000916)
 23:    989.46   0.008492   42.91  0.002678  ( 0.016901 -0.039229  0.029215)
 24:    994.70   0.000079    0.40  0.000025  ( 0.004397  0.001526 -0.001742)
 25:   1013.68   0.001566    7.91  0.000482  (-0.020640 -0.004314  0.006123)
 26:   1093.85   0.000191    0.96  0.000054  ( 0.006928  0.001457 -0.002060)
 27:   1101.67   0.000480    2.43  0.000136  ( 0.001153 -0.010937 -0.003881)
 28:   1222.55   0.000010    0.05  0.000003  (-0.001457 -0.000353  0.000516)
 29:   1263.00   0.000154    0.78  0.000038  (-0.005797 -0.001141  0.001749)
 30:   1264.60   0.000028    0.14  0.000007  ( 0.000686 -0.002337  0.000968)
 31:   1314.19   0.000286    1.45  0.000068  (-0.001328  0.008046  0.001220)
 32:   1404.44   0.000439    2.22  0.000098  ( 0.009283  0.001976 -0.002732)
 33:   1435.82   0.000576    2.91  0.000125  (-0.010514 -0.002208  0.003122)
 34:   1473.69   0.002056   10.39  0.000435  ( 0.001067  0.015079  0.014380)
 35:   1547.84   0.000272    1.37  0.000055  (-0.002554  0.003590 -0.005950)
 36:   1624.58   0.000084    0.43  0.000016  (-0.003589 -0.000972  0.001538)
 37:   1627.38   0.000363    1.84  0.000070  ( 0.002956 -0.002644  0.007347)
 38:   3165.02   0.000764    3.86  0.000075  (-0.008148 -0.001731  0.002443)
 39:   3170.44   0.001643    8.30  0.000162  ( 0.001906  0.006975  0.010461)
 40:   3172.81   0.000174    0.88  0.000017  ( 0.003830  0.000599 -0.001428)
 41:   3179.42   0.000260    1.32  0.000026  ( 0.000593 -0.004799 -0.001475)
 42:   3182.42   0.001582    7.99  0.000155  (-0.011705 -0.002431  0.003490)
 43:   3197.57   0.001992   10.07  0.000194  (-0.000579  0.012190  0.006742)
 44:   3262.82   0.000043    0.22  0.000004  ( 0.001911  0.000350 -0.000587)
 45:   3267.91   0.000447    2.26  0.000043  (-0.000898 -0.002947 -0.005759)
 46:   3272.38   0.001235    6.24  0.000118  ( 0.010227  0.002194 -0.002896)
 47:   3283.22   0.001069    5.40  0.000102  (-0.001526 -0.004892 -0.008682)

* The epsilon (eps) is given for a Dirac delta lineshape.
** The dipole moment derivative (T) already includes vibrational overlap.

The first frequency considered to be a vibration is 7
The total number of vibrations considered is 41


--------------------------
THERMOCHEMISTRY AT 298.15K
--------------------------

Temperature         ... 298.15 K
Pressure            ... 1.00 atm
Total Mass          ... 82.15 AMU

Throughout the following assumptions are being made:
  (1) The electronic state is orbitally nondegenerate
  (2) There are no thermally accessible electronically excited states
  (3) Hindered rotations indicated by low frequency modes are not
      treated as such but are treated as vibrations and this may
      cause some error
  (4) All equations used are the standard statistical mechanics
      equations for an ideal gas
  (5) All vibrations are strictly harmonic

freq.     131.62  E(vib)   ...       0.42 
freq.     201.55  E(vib)   ...       0.35 
freq.     277.56  E(vib)   ...       0.28 
freq.     366.86  E(vib)   ...       0.22 
freq.     396.11  E(vib)   ...       0.20 
freq.     477.31  E(vib)   ...       0.15 
freq.     582.33  E(vib)   ...       0.11 
freq.     594.98  E(vib)   ...       0.10 
freq.     679.11  E(vib)   ...       0.08 
freq.     777.80  E(vib)   ...       0.05 
freq.     807.24  E(vib)   ...       0.05 
freq.     833.29  E(vib)   ...       0.04 
freq.     905.70  E(vib)   ...       0.03 
freq.     939.69  E(vib)   ...       0.03 
freq.     971.04  E(vib)   ...       0.03 
freq.     979.36  E(vib)   ...       0.03 
freq.     989.46  E(vib)   ...       0.02 
freq.     994.70  E(vib)   ...       0.02 
freq.    1013.68  E(vib)   ...       0.02 
freq.    1093.85  E(vib)   ...       0.02 
freq.    1101.67  E(vib)   ...       0.02 
freq.    1222.55  E(vib)   ...       0.01 
freq.    1263.00  E(vib)   ...       0.01 
freq.    1264.60  E(vib)   ...       0.01 
freq.    1314.19  E(vib)   ...       0.01 
freq.    1404.44  E(vib)   ...       0.00 
freq.    1435.82  E(vib)   ...       0.00 
freq.    1473.69  E(vib)   ...       0.00 
freq.    1547.84  E(vib)   ...       0.00 
freq.    1624.58  E(vib)   ...       0.00 
freq.    1627.38  E(vib)   ...       0.00 
freq.    3165.02  E(vib)   ...       0.00 
freq.    3170.44  E(vib)   ...       0.00 
freq.    3172.81  E(vib)   ...       0.00 
freq.    3179.42  E(vib)   ...       0.00 
freq.    3182.42  E(vib)   ...       0.00 
freq.    3197.57  E(vib)   ...       0.00 
freq.    3262.82  E(vib)   ...       0.00 
freq.    3267.91  E(vib)   ...       0.00 
freq.    3272.38  E(vib)   ...       0.00 
freq.    3283.22  E(vib)   ...       0.00 

------------
INNER ENERGY
------------

The inner energy is: U= E(el) + E(ZPE) + E(vib) + E(rot) + E(trans)
    E(el)   - is the total energy from the electronic structure calculation
              = E(kin-el) + E(nuc-el) + E(el-el) + E(nuc-nuc)
    E(ZPE)  - the the zero temperature vibrational energy from the frequency calculation
    E(vib)  - the the finite temperature correction to E(ZPE) due to population
              of excited vibrational states
    E(rot)  - is the rotational thermal energy
    E(trans)- is the translational thermal energy

Summary of contributions to the inner energy U:
Electronic energy                ...   -234.09076869 Eh
Zero point energy                ...      0.13998655 Eh      87.84 kcal/mol
Thermal vibrational correction   ...      0.00368821 Eh       2.31 kcal/mol
Thermal rotational correction    ...      0.00141627 Eh       0.89 kcal/mol
Thermal translational correction ...      0.00141627 Eh       0.89 kcal/mol
-----------------------------------------------------------------------
Total thermal energy                   -233.94426139 Eh


Summary of corrections to the electronic energy:
(perhaps to be used in another calculation)
Total thermal correction                  0.00652075 Eh       4.09 kcal/mol
Non-thermal (ZPE) correction              0.13998655 Eh      87.84 kcal/mol
-----------------------------------------------------------------------
Total correction                          0.14650730 Eh      91.93 kcal/mol


--------
ENTHALPY
--------

The enthalpy is H = U + kB*T
                kB is Boltzmann's constant
Total free energy                 ...   -233.94426139 Eh 
Thermal Enthalpy correction       ...      0.00094421 Eh       0.59 kcal/mol
-----------------------------------------------------------------------
Total Enthalpy                    ...   -233.94331718 Eh


Note: Only C1 symmetry has been detected, increase convergence thresholds 
      if your molecule has a higher symmetry. Symmetry factor of 1.0 is   
      used for the rotational entropy correction. 
 

Note: Rotational entropy computed according to Herzberg 
Infrared and Raman Spectra, Chapter V,1, Van Nostrand Reinhold, 1945 
Point Group:  C1, Symmetry Number:   1  
Rotational constants in cm-1:     0.144489     0.114573     0.075138 

Vibrational entropy computed according to the QRRHO of S. Grimme
Chem.Eur.J. 2012 18 9955


-------
ENTROPY
-------

The entropy contributions are T*S = T*(S(el)+S(vib)+S(rot)+S(trans))
     S(el)   - electronic entropy
     S(vib)  - vibrational entropy
     S(rot)  - rotational entropy
     S(trans)- translational entropy
The entropies will be listed as multiplied by the temperature to get
units of energy

Electronic entropy                ...      0.00000000 Eh      0.00 kcal/mol
Vibrational entropy               ...      0.00582279 Eh      3.65 kcal/mol
Rotational entropy                ...      0.01266887 Eh      7.95 kcal/mol
Translational entropy             ...      0.01859270 Eh     11.67 kcal/mol
-----------------------------------------------------------------------
Final entropy term                ...      0.03708436 Eh     23.27 kcal/mol

In case the symmetry of your molecule has not been determined correctly
or in case you have a reason to use a different symmetry number we print 
out the resulting rotational entropy values for sn=1,12 :
 --------------------------------------------------------
|  sn= 1 | S(rot)=       0.01266887 Eh      7.95 kcal/mol|
|  sn= 2 | S(rot)=       0.01201441 Eh      7.54 kcal/mol|
|  sn= 3 | S(rot)=       0.01163158 Eh      7.30 kcal/mol|
|  sn= 4 | S(rot)=       0.01135996 Eh      7.13 kcal/mol|
|  sn= 5 | S(rot)=       0.01114927 Eh      7.00 kcal/mol|
|  sn= 6 | S(rot)=       0.01097712 Eh      6.89 kcal/mol|
|  sn= 7 | S(rot)=       0.01083158 Eh      6.80 kcal/mol|
|  sn= 8 | S(rot)=       0.01070550 Eh      6.72 kcal/mol|
|  sn= 9 | S(rot)=       0.01059429 Eh      6.65 kcal/mol|
|  sn=10 | S(rot)=       0.01049481 Eh      6.59 kcal/mol|
|  sn=11 | S(rot)=       0.01040482 Eh      6.53 kcal/mol|
|  sn=12 | S(rot)=       0.01032267 Eh      6.48 kcal/mol|
 --------------------------------------------------------


-------------------
GIBBS FREE ENERGY
-------------------

The Gibbs free energy is G = H - T*S

Total enthalpy                    ...   -233.94331718 Eh 
Total entropy correction          ...     -0.03708436 Eh    -23.27 kcal/mol
-----------------------------------------------------------------------
Final Gibbs free energy         ...   -233.98040154 Eh

For completeness - the Gibbs free energy minus the electronic energy
G-E(el)                           ...      0.11036715 Eh     69.26 kcal/mol


Timings for individual modules:

Sum of individual times         ...     1050.662 sec (=  17.511 min)
GTO integral calculation        ...       43.392 sec (=   0.723 min)   4.1 %
SCF iterations                  ...      533.380 sec (=   8.890 min)  50.8 %
SCF Gradient evaluation         ...      208.127 sec (=   3.469 min)  19.8 %
Geometry relaxation             ...        3.794 sec (=   0.063 min)   0.4 %
Analytical frequency calculation...      261.968 sec (=   4.366 min)  24.9 %
                             ****ORCA TERMINATED NORMALLY****
TOTAL RUN TIME: 0 days 0 hours 18 minutes 12 seconds 255 msec
