
                                 *****************
                                 * O   R   C   A *
                                 *****************

                                            #,                                       
                                            ###                                      
                                            ####                                     
                                            #####                                    
                                            ######                                   
                                           ########,                                 
                                     ,,################,,,,,                         
                               ,,#################################,,                 
                          ,,##########################################,,             
                       ,#########################################, ''#####,          
                    ,#############################################,,   '####,        
                  ,##################################################,,,,####,       
                ,###########''''           ''''###############################       
              ,#####''   ,,,,##########,,,,          '''####'''          '####       
            ,##' ,,,,###########################,,,                        '##       
           ' ,,###''''                  '''############,,,                           
         ,,##''                                '''############,,,,        ,,,,,,###''
      ,#''                                            '''#######################'''  
     '                                                          ''''####''''         
             ,#######,   #######,   ,#######,      ##                                
            ,#'     '#,  ##    ##  ,#'     '#,    #''#        ######   ,####,        
            ##       ##  ##   ,#'  ##            #'  '#       #        #'  '#        
            ##       ##  #######   ##           ,######,      #####,   #    #        
            '#,     ,#'  ##    ##  '#,     ,#' ,#      #,         ##   #,  ,#        
             '#######'   ##     ##  '#######'  #'      '#     #####' # '####'        



                  #######################################################
                  #                        -***-                        #
                  #          Department of theory and spectroscopy      #
                  #    Directorship and core code : Frank Neese         #
                  #        Max Planck Institute fuer Kohlenforschung    #
                  #                Kaiser Wilhelm Platz 1               #
                  #                 D-45470 Muelheim/Ruhr               #
                  #                      Germany                        #
                  #                                                     #
                  #                  All rights reserved                #
                  #                        -***-                        #
                  #######################################################


                         Program Version 5.0.4 -  RELEASE  -


 With contributions from (in alphabetic order):
   Daniel Aravena         : Magnetic Suceptibility
   Michael Atanasov       : Ab Initio Ligand Field Theory (pilot matlab implementation)
   Alexander A. Auer      : GIAO ZORA, VPT2 properties, NMR spectrum
   Ute Becker             : Parallelization
   Giovanni Bistoni       : ED, misc. LED, open-shell LED, HFLD
   Martin Brehm           : Molecular dynamics
   Dmytro Bykov           : SCF Hessian
   Vijay G. Chilkuri      : MRCI spin determinant printing, contributions to CSF-ICE
   Dipayan Datta          : RHF DLPNO-CCSD density
   Achintya Kumar Dutta   : EOM-CC, STEOM-CC
   Dmitry Ganyushin       : Spin-Orbit,Spin-Spin,Magnetic field MRCI
   Miquel Garcia          : C-PCM and meta-GGA Hessian, CC/C-PCM, Gaussian charge scheme
   Yang Guo               : DLPNO-NEVPT2, F12-NEVPT2, CIM, IAO-localization
   Andreas Hansen         : Spin unrestricted coupled pair/coupled cluster methods
   Benjamin Helmich-Paris : MC-RPA, TRAH-SCF, COSX integrals
   Lee Huntington         : MR-EOM, pCC
   Robert Izsak           : Overlap fitted RIJCOSX, COSX-SCS-MP3, EOM
   Marcus Kettner         : VPT2
   Christian Kollmar      : KDIIS, OOCD, Brueckner-CCSD(T), CCSD density, CASPT2, CASPT2-K
   Simone Kossmann        : Meta GGA functionals, TD-DFT gradient, OOMP2, MP2 Hessian
   Martin Krupicka        : Initial AUTO-CI
   Lucas Lang             : DCDCAS
   Marvin Lechner         : AUTO-CI (C++ implementation), FIC-MRCC
   Dagmar Lenk            : GEPOL surface, SMD
   Dimitrios Liakos       : Extrapolation schemes; Compound Job, initial MDCI parallelization
   Dimitrios Manganas     : Further ROCIS development; embedding schemes
   Dimitrios Pantazis     : SARC Basis sets
   Anastasios Papadopoulos: AUTO-CI, single reference methods and gradients
   Taras Petrenko         : DFT Hessian,TD-DFT gradient, ASA, ECA, R-Raman, ABS, FL, XAS/XES, NRVS
   Peter Pinski           : DLPNO-MP2, DLPNO-MP2 Gradient
   Christoph Reimann      : Effective Core Potentials
   Marius Retegan         : Local ZFS, SOC
   Christoph Riplinger    : Optimizer, TS searches, QM/MM, DLPNO-CCSD(T), (RO)-DLPNO pert. Triples
   Tobias Risthaus        : Range-separated hybrids, TD-DFT gradient, RPA, STAB
   Michael Roemelt        : Original ROCIS implementation
   Masaaki Saitow         : Open-shell DLPNO-CCSD energy and density
   Barbara Sandhoefer     : DKH picture change effects
   Avijit Sen             : IP-ROCIS
   Kantharuban Sivalingam : CASSCF convergence, NEVPT2, FIC-MRCI
   Bernardo de Souza      : ESD, SOC TD-DFT
   Georgi Stoychev        : AutoAux, RI-MP2 NMR, DLPNO-MP2 response
   Willem Van den Heuvel  : Paramagnetic NMR
   Boris Wezisla          : Elementary symmetry handling
   Frank Wennmohs         : Technical directorship


 We gratefully acknowledge several colleagues who have allowed us to
 interface, adapt or use parts of their codes:
   Stefan Grimme, W. Hujo, H. Kruse, P. Pracht,  : VdW corrections, initial TS optimization,
                  C. Bannwarth, S. Ehlert          DFT functionals, gCP, sTDA/sTD-DF
   Ed Valeev, F. Pavosevic, A. Kumar             : LibInt (2-el integral package), F12 methods
   Garnet Chan, S. Sharma, J. Yang, R. Olivares  : DMRG
   Ulf Ekstrom                                   : XCFun DFT Library
   Mihaly Kallay                                 : mrcc  (arbitrary order and MRCC methods)
   Jiri Pittner, Ondrej Demel                    : Mk-CCSD
   Frank Weinhold                                : gennbo (NPA and NBO analysis)
   Christopher J. Cramer and Donald G. Truhlar   : smd solvation model
   Lars Goerigk                                  : TD-DFT with DH, B97 family of functionals
   V. Asgeirsson, H. Jonsson                     : NEB implementation
   FAccTs GmbH                                   : IRC, NEB, NEB-TS, DLPNO-Multilevel, CI-OPT
                                                   MM, QMMM, 2- and 3-layer-ONIOM, Crystal-QMMM,
                                                   LR-CPCM, SF, NACMEs, symmetry and pop. for TD-DFT,
                                                   nearIR, NL-DFT gradient (VV10), updates on ESD,
                                                   ML-optimized integration grids
   S Lehtola, MJT Oliveira, MAL Marques          : LibXC Library
   Liviu Ungur et al                             : ANISO software


 Your calculation uses the libint2 library for the computation of 2-el integrals
 For citations please refer to: http://libint.valeyev.net

 Your ORCA version has been built with support for libXC version: 5.1.0
 For citations please refer to: https://tddft.org/programs/libxc/

 This ORCA versions uses:
   CBLAS   interface :  Fast vector & matrix operations
   LAPACKE interface :  Fast linear algebra routines
   SCALAPACK package :  Parallel linear algebra routines
   Shared memory     :  Shared parallel matrices
   BLAS/LAPACK       :  OpenBLAS 0.3.15  USE64BITINT DYNAMIC_ARCH NO_AFFINITY SkylakeX SINGLE_THREADED
        Core in use  :  SkylakeX
   Copyright (c) 2011-2014, The OpenBLAS Project


Your calculation utilizes the atom-pairwise dispersion correction
with the Becke-Johnson damping scheme (D3BJ)
Cite in your paper:
S.Grimme, S.Ehrlich, L.Goerigk, J Comput Chem, (2011), 32, 1456–1465 
S.Grimme, J.Antony, S.Ehrlich and H.Krieg, J.Chem.Phys., 132, (2010), 154104 
   

================================================================================

----- Orbital basis set information -----
Your calculation utilizes the basis: def2-SVP
   F. Weigend and R. Ahlrichs, Phys. Chem. Chem. Phys. 7, 3297 (2005).

----- AuxJ basis set information -----
Your calculation utilizes the auxiliary basis: def2/J
   F. Weigend, Phys. Chem. Chem. Phys. 8, 1057 (2006).

================================================================================
                                        WARNINGS
                       Please study these warnings very carefully!
================================================================================


WARNING: your system is open-shell and RHF/RKS was chosen
  ===> : WILL SWITCH to UHF/UKS


INFO   : the flag for use of the SHARK integral package has been found!

================================================================================
                                       INPUT FILE
================================================================================
NAME = 23_1_orca.inp
|  1> ! EnGrad PBE0 RIJCOSX D3BJ def2-SVP def2/J 
|  2> %output 
|  3> xyzfile=True 
|  4> end 
|  5> %scf 
|  6> maxiter 250 
|  7> end
|  8> %output
|  9> Print[P_Hirshfeld] = 1
| 10> end
| 11> % maxcore
| 12> 4000
| 13> *xyz 0 2
| 14> O   -2.72703307   0.56297822   2.12041718 
| 15> O   -0.55728444  -0.40091521   0.92919571 
| 16> C   -0.72922097   0.14463903  -0.43164772 
| 17> C    0.15537355   0.86852622   0.51513120 
| 18> C    1.54602049   0.47894833   0.22285672 
| 19> C    1.51381311  -0.64827274  -0.62103926 
| 20> C    0.11571544  -0.67096944  -1.34569304 
| 21> H   -1.95656117   0.01204902   1.85804487 
| 22> H   -1.77549552   0.42385734  -0.60072044 
| 23> H   -0.19363374   1.70782800   1.12101714 
| 24> H    2.44091494   0.78632618   0.75932921 
| 25> H    2.16601417  -1.32819281  -0.71422518 
| 26> H    0.30969429  -0.25541507  -2.34818830 
| 27> H   -0.30788634  -1.68081336  -1.46393953 
| 28> *
| 29> 
| 30>                          ****END OF INPUT****
================================================================================

                     *******************************
                     * Energy+Gradient Calculation *
                     *******************************

---------------------------------
CARTESIAN COORDINATES (ANGSTROEM)
---------------------------------
  O     -2.727033    0.562978    2.120417
  O     -0.557284   -0.400915    0.929196
  C     -0.729221    0.144639   -0.431648
  C      0.155374    0.868526    0.515131
  C      1.546020    0.478948    0.222857
  C      1.513813   -0.648273   -0.621039
  C      0.115715   -0.670969   -1.345693
  H     -1.956561    0.012049    1.858045
  H     -1.775496    0.423857   -0.600720
  H     -0.193634    1.707828    1.121017
  H      2.440915    0.786326    0.759329
  H      2.166014   -1.328193   -0.714225
  H      0.309694   -0.255415   -2.348188
  H     -0.307886   -1.680813   -1.463940

----------------------------
CARTESIAN COORDINATES (A.U.)
----------------------------
  NO LB      ZA    FRAG     MASS         X           Y           Z
   0 O     8.0000    0    15.999   -5.153346    1.063875    4.007008
   1 O     8.0000    0    15.999   -1.053115   -0.757620    1.755925
   2 C     6.0000    0    12.011   -1.378028    0.273328   -0.815696
   3 C     6.0000    0    12.011    0.293613    1.641277    0.973457
   4 C     6.0000    0    12.011    2.921555    0.905081    0.421138
   5 C     6.0000    0    12.011    2.860692   -1.225058   -1.173594
   6 C     6.0000    0    12.011    0.218670   -1.267948   -2.542991
   7 H     1.0000    0     1.008   -3.697365    0.022769    3.511196
   8 H     1.0000    0     1.008   -3.355200    0.800974   -1.135197
   9 H     1.0000    0     1.008   -0.365915    3.227327    2.118415
  10 H     1.0000    0     1.008    4.612661    1.485941    1.434924
  11 H     1.0000    0     1.008    4.093174   -2.509921   -1.349690
  12 H     1.0000    0     1.008    0.585237   -0.482665   -4.437433
  13 H     1.0000    0     1.008   -0.581821   -3.176277   -2.766445

--------------------------------
INTERNAL COORDINATES (ANGSTROEM)
--------------------------------
 O      0   0   0     0.000000000000     0.00000000     0.00000000
 O      1   0   0     2.656295964755     0.00000000     0.00000000
 C      2   1   0     1.476172903187   100.61262839     0.00000000
 C      3   2   1     1.484220486322    61.49542898    97.42867966
 C      4   3   2     1.473463340490   107.87954635    98.36969718
 C      5   4   3     1.408483255505   107.99078752   346.72379017
 C      3   2   1     1.488157773992   107.31015804   199.72804652
 H      1   2   3     0.982847476039    15.53868717   150.78394981
 H      3   2   1     1.096010439396   110.33759511   340.18203391
 H      4   3   2     1.092397060905   122.55510859   264.83699479
 H      5   4   3     1.087713175354   127.15257863   183.17744534
 H      6   5   4     0.946752945567   128.16802368   206.58580177
 H      7   3   2     1.102410982799   116.86277398   194.99405171
 H      7   3   2     1.101456055945   110.49120341    70.45180214

---------------------------
INTERNAL COORDINATES (A.U.)
---------------------------
 O      0   0   0     0.000000000000     0.00000000     0.00000000
 O      1   0   0     5.019671904027     0.00000000     0.00000000
 C      2   1   0     2.789562513340   100.61262839     0.00000000
 C      3   2   1     2.804770241503    61.49542898    97.42867966
 C      4   3   2     2.784442181899   107.87954635    98.36969718
 C      5   4   3     2.661647617119   107.99078752   346.72379017
 C      3   2   1     2.812210636911   107.31015804   199.72804652
 H      1   2   3     1.857312561130    15.53868717   150.78394981
 H      3   2   1     2.071159570377   110.33759511   340.18203391
 H      4   3   2     2.064331274611   122.55510859   264.83699479
 H      5   4   3     2.055480013677   127.15257863   183.17744534
 H      6   5   4     1.789103783605   128.16802368   206.58580177
 H      7   3   2     2.083254844517   116.86277398   194.99405171
 H      7   3   2     2.081450294285   110.49120341    70.45180214

---------------------
BASIS SET INFORMATION
---------------------
There are 3 groups of distinct atoms

 Group   1 Type O   : 7s4p1d contracted to 3s2p1d pattern {511/31/1}
 Group   2 Type C   : 7s4p1d contracted to 3s2p1d pattern {511/31/1}
 Group   3 Type H   : 4s1p contracted to 2s1p pattern {31/1}

Atom   0O    basis set group =>   1
Atom   1O    basis set group =>   1
Atom   2C    basis set group =>   2
Atom   3C    basis set group =>   2
Atom   4C    basis set group =>   2
Atom   5C    basis set group =>   2
Atom   6C    basis set group =>   2
Atom   7H    basis set group =>   3
Atom   8H    basis set group =>   3
Atom   9H    basis set group =>   3
Atom  10H    basis set group =>   3
Atom  11H    basis set group =>   3
Atom  12H    basis set group =>   3
Atom  13H    basis set group =>   3
---------------------------------
AUXILIARY/J BASIS SET INFORMATION
---------------------------------
There are 3 groups of distinct atoms

 Group   1 Type O   : 12s5p4d2f1g contracted to 6s4p3d1f1g pattern {711111/2111/211/2/1}
 Group   2 Type C   : 12s5p4d2f1g contracted to 6s4p3d1f1g pattern {711111/2111/211/2/1}
 Group   3 Type H   : 5s2p1d contracted to 3s1p1d pattern {311/2/1}

Atom   0O    basis set group =>   1
Atom   1O    basis set group =>   1
Atom   2C    basis set group =>   2
Atom   3C    basis set group =>   2
Atom   4C    basis set group =>   2
Atom   5C    basis set group =>   2
Atom   6C    basis set group =>   2
Atom   7H    basis set group =>   3
Atom   8H    basis set group =>   3
Atom   9H    basis set group =>   3
Atom  10H    basis set group =>   3
Atom  11H    basis set group =>   3
Atom  12H    basis set group =>   3
Atom  13H    basis set group =>   3
------------------------------------------------------------------------------
                           ORCA GTO INTEGRAL CALCULATION
                           -- RI-GTO INTEGRALS CHOSEN --
------------------------------------------------------------------------------
------------------------------------------------------------------------------
                   ___                                                        
                  /   \      - P O W E R E D   B Y -                         
                 /     \                                                     
                 |  |  |   _    _      __       _____    __    __             
                 |  |  |  | |  | |    /  \     |  _  \  |  |  /  |          
                  \  \/   | |  | |   /    \    | | | |  |  | /  /          
                 / \  \   | |__| |  /  /\  \   | |_| |  |  |/  /          
                |  |  |   |  __  | /  /__\  \  |    /   |      \           
                |  |  |   | |  | | |   __   |  |    \   |  |\   \          
                \     /   | |  | | |  |  |  |  | |\  \  |  | \   \       
                 \___/    |_|  |_| |__|  |__|  |_| \__\ |__|  \__/        
                                                                              
                      - O R C A' S   B I G   F R I E N D -                    
                                      &                                       
                       - I N T E G R A L  F E E D E R -                       
                                                                              
 v1 FN, 2020, v2 2021                                                         
------------------------------------------------------------------------------


Reading SHARK input file 23_1_orca.SHARKINP.tmp ... ok
----------------------
SHARK INTEGRAL PACKAGE
----------------------

Number of atoms                             ...     14
Number of basis functions                   ...    133
Number of shells                            ...     63
Maximum angular momentum                    ...      2
Integral batch strategy                     ... SHARK/LIBINT Hybrid
RI-J (if used) integral strategy            ... SPLIT-RIJ (Revised 2003 algorithm where possible)
Printlevel                                  ...      1
Contraction scheme used                     ... SEGMENTED contraction
Coulomb Range Separation                    ... NOT USED
Exchange Range Separation                   ... NOT USED
Finite Nucleus Model                        ... NOT USED
Auxiliary Coulomb fitting basis             ... AVAILABLE
   # of basis functions in Aux-J            ...    420
   # of shells in Aux-J                     ...    140
   Maximum angular momentum in Aux-J        ...      4
Auxiliary J/K fitting basis                 ... NOT available
Auxiliary Correlation fitting basis         ... NOT available
Auxiliary 'external' fitting basis          ... NOT available
Integral threshold                          ...     2.500000e-11
Primitive cut-off                           ...     2.500000e-12
Primitive pair pre-selection threshold      ...     2.500000e-12

Calculating pre-screening integrals         ... done (  0.0 sec) Dimension = 63
Organizing shell pair data                  ... done (  0.0 sec)
Shell pair information
Total number of shell pairs                 ...      2016
Shell pairs after pre-screening             ...      1928
Total number of primitive shell pairs       ...      7252
Primitive shell pairs kept                  ...      5291
          la=0 lb=0:    601 shell pairs
          la=1 lb=0:    708 shell pairs
          la=1 lb=1:    224 shell pairs
          la=2 lb=0:    231 shell pairs
          la=2 lb=1:    139 shell pairs
          la=2 lb=2:     25 shell pairs

Calculating one electron integrals          ... done (  0.0 sec)
Calculating RI/J V-Matrix + Cholesky decomp.... done (  0.0 sec)
Calculating Nuclear repulsion               ... done (  0.0 sec) ENN=    289.946379418961 Eh

SHARK setup successfully completed in   0.1 seconds

Maximum memory used throughout the entire GTOINT-calculation: 16.6 MB
-------------------------------------------------------------------------------
                                 ORCA SCF
-------------------------------------------------------------------------------

------------
SCF SETTINGS
------------
Hamiltonian:
 Density Functional     Method          .... DFT(GTOs)
 Exchange Functional    Exchange        .... PBE
   PBE kappa parameter   XKappa         ....  0.804000
   PBE mue parameter    XMuePBE         ....  0.219520
 Correlation Functional Correlation     .... PBE
   PBE beta parameter  CBetaPBE         ....  0.066725
 LDA part of GGA corr.  LDAOpt          .... PW91-LDA
 Gradients option       PostSCFGGA      .... off
 Hybrid DFT is turned on
   Fraction HF Exchange ScalHFX         ....  0.250000
   Scaling of DF-GGA-X  ScalDFX         ....  0.750000
   Scaling of DF-GGA-C  ScalDFC         ....  1.000000
   Scaling of DF-LDA-C  ScalLDAC        ....  1.000000
   Perturbative correction              ....  0.000000
   Density functional embedding theory  .... OFF
   NL short-range parameter             ....  6.900000
 RI-approximation to the Coulomb term is turned on
   Number of AuxJ basis functions       .... 420
   RIJ-COSX (HFX calculated with COS-X)).... on


General Settings:
 Integral files         IntName         .... 23_1_orca
 Hartree-Fock type      HFTyp           .... UHF
 Total Charge           Charge          ....    0
 Multiplicity           Mult            ....    2
 Number of Electrons    NEL             ....   53
 Basis Dimension        Dim             ....  133
 Nuclear Repulsion      ENuc            ....    289.9463794190 Eh

Convergence Acceleration:
 DIIS                   CNVDIIS         .... on
   Start iteration      DIISMaxIt       ....    12
   Startup error        DIISStart       ....  0.200000
   # of expansion vecs  DIISMaxEq       ....     5
   Bias factor          DIISBfac        ....   1.050
   Max. coefficient     DIISMaxC        ....  10.000
 Trust-Rad. Augm. Hess. CNVTRAH         .... auto
   Auto Start mean grad. ratio tolernc. ....  1.125000
   Auto Start start iteration           ....    20
   Auto Start num. interpolation iter.  ....    10
   Max. Number of Micro iterations      ....    16
   Max. Number of Macro iterations      .... Maxiter - #DIIS iter
   Number of Davidson start vectors     ....     2
   Converg. threshold I  (grad. norm)   ....   1.000e-05
   Converg. threshold II (energy diff.) ....   1.000e-08
   Grad. Scal. Fac. for Micro threshold ....   0.100
   Minimum threshold for Micro iter.    ....   0.010
   NR start threshold (gradient norm)   ....   0.001
   Initial trust radius                 ....   0.400
   Minimum AH scaling param. (alpha)    ....   1.000
   Maximum AH scaling param. (alpha)    .... 1000.000
   Orbital update algorithm             .... Taylor
   White noise on init. David. guess    .... on
   Maximum white noise                  ....   0.010
   Quad. conv. algorithm                .... NR
 SOSCF                  CNVSOSCF        .... off
 Level Shifting         CNVShift        .... on
   Level shift para.    LevelShift      ....    0.2500
   Turn off err/grad.   ShiftErr        ....    0.0010
 Zerner damping         CNVZerner       .... off
 Static damping         CNVDamp         .... on
   Fraction old density DampFac         ....    0.7000
   Max. Damping (<1)    DampMax         ....    0.9800
   Min. Damping (>=0)   DampMin         ....    0.0000
   Turn off err/grad.   DampErr         ....    0.1000
 Fernandez-Rico         CNVRico         .... off

SCF Procedure:
 Maximum # iterations   MaxIter         ....   250
 SCF integral mode      SCFMode         .... Direct
   Integral package                     .... SHARK and LIBINT hybrid scheme
 Reset frequency        DirectResetFreq ....    20
 Integral Threshold     Thresh          ....  2.500e-11 Eh
 Primitive CutOff       TCut            ....  2.500e-12 Eh

Convergence Tolerance:
 Convergence Check Mode ConvCheckMode   .... Total+1el-Energy
 Convergence forced     ConvForced      .... 0
 Energy Change          TolE            ....  1.000e-08 Eh
 1-El. energy change                    ....  1.000e-05 Eh
 DIIS Error             TolErr          ....  5.000e-07


Diagonalization of the overlap matrix:
Smallest eigenvalue                        ... 7.867e-04
Time for diagonalization                   ...    0.002 sec
Threshold for overlap eigenvalues          ... 1.000e-08
Number of eigenvalues below threshold      ... 0
Time for construction of square roots      ...    0.001 sec
Total time needed                          ...    0.003 sec

Time for model grid setup =    0.116 sec

------------------------------
INITIAL GUESS: MODEL POTENTIAL
------------------------------
Loading Hartree-Fock densities                     ... done
Calculating cut-offs                               ... done
Initializing the effective Hamiltonian             ... done
Setting up the integral package (SHARK)            ... done
Starting the Coulomb interaction                   ... done (   0.1 sec)
Reading the grid                                   ... done
Mapping shells                                     ... done
Starting the XC term evaluation                    ... done (   0.1 sec)
  promolecular density results
     # of electrons  =     52.998624625
     EX              =    -43.841758232
     EC              =     -1.747928442
     EX+EC           =    -45.589686675
Transforming the Hamiltonian                       ... done (   0.0 sec)
Diagonalizing the Hamiltonian                      ... done (   0.0 sec)
Back transforming the eigenvectors                 ... done (   0.0 sec)
Now organizing SCF variables                       ... done
                      ------------------
                      INITIAL GUESS DONE (   0.3 sec)
                      ------------------
-------------------
DFT GRID GENERATION
-------------------

General Integration Accuracy     IntAcc      ... 4.388
Radial Grid Type                 RadialGrid  ... OptM3 with GC (2021)
Angular Grid (max. ang.)         AngularGrid ... 4 (Lebedev-302)
Angular grid pruning method      GridPruning ... 4 (adaptive)
Weight generation scheme         WeightScheme... Becke
Basis function cutoff            BFCut       ... 1.0000e-11
Integration weight cutoff        WCut        ... 1.0000e-14
Angular grids for H and He will be reduced by one unit
Partially contracted basis set               ... off
Rotationally invariant grid construction     ... off

Total number of grid points                  ...    64886
Total number of batches                      ...     1021
Average number of points per batch           ...       63
Average number of grid points per atom       ...     4635
Time for grid setup =    0.476 sec

--------------------
COSX GRID GENERATION
--------------------

GRIDX 1
-------
General Integration Accuracy     IntAcc      ... 3.816
Radial Grid Type                 RadialGrid  ... OptM3 with GC (2021)
Angular Grid (max. ang.)         AngularGrid ... 1 (Lebedev-50)
Angular grid pruning method      GridPruning ... 4 (adaptive)
Weight generation scheme         WeightScheme... Becke
Basis function cutoff            BFCut       ... 1.0000e-11
Integration weight cutoff        WCut        ... 1.0000e-14
Angular grids for H and He will be reduced by one unit
Partially contracted basis set               ... on
Rotationally invariant grid construction     ... off

Total number of grid points                  ...     8302
Total number of batches                      ...      136
Average number of points per batch           ...       61
Average number of grid points per atom       ...      593
UseSFitting                                  ... on

GRIDX 2
-------
General Integration Accuracy     IntAcc      ... 4.020
Radial Grid Type                 RadialGrid  ... OptM3 with GC (2021)
Angular Grid (max. ang.)         AngularGrid ... 2 (Lebedev-110)
Angular grid pruning method      GridPruning ... 4 (adaptive)
Weight generation scheme         WeightScheme... Becke
Basis function cutoff            BFCut       ... 1.0000e-11
Integration weight cutoff        WCut        ... 1.0000e-14
Angular grids for H and He will be reduced by one unit
Partially contracted basis set               ... on
Rotationally invariant grid construction     ... off

Total number of grid points                  ...    18049
Total number of batches                      ...      290
Average number of points per batch           ...       62
Average number of grid points per atom       ...     1289
UseSFitting                                  ... on

GRIDX 3
-------
General Integration Accuracy     IntAcc      ... 4.338
Radial Grid Type                 RadialGrid  ... OptM3 with GC (2021)
Angular Grid (max. ang.)         AngularGrid ... 3 (Lebedev-194)
Angular grid pruning method      GridPruning ... 4 (adaptive)
Weight generation scheme         WeightScheme... Becke
Basis function cutoff            BFCut       ... 1.0000e-11
Integration weight cutoff        WCut        ... 1.0000e-14
Angular grids for H and He will be reduced by one unit
Partially contracted basis set               ... on
Rotationally invariant grid construction     ... off

Total number of grid points                  ...    39672
Total number of batches                      ...      628
Average number of points per batch           ...       63
Average number of grid points per atom       ...     2834
UseSFitting                                  ... on

Time for X-Grid setup             =    0.529 sec

--------------
SCF ITERATIONS
--------------
ITER       Energy         Delta-E        Max-DP      RMS-DP      [F,P]     Damp
               ***  Starting incremental Fock matrix formation  ***
  0   -343.8551331408   0.000000000000 0.84951904  0.01028222  0.2284860 0.7000
  1   -343.9121608240  -0.057027683247 0.23690505  0.00305910  0.0398553 0.7000
                               ***Turning on DIIS***
  2   -344.0539163139  -0.141755489824 0.58686004  0.00728752  0.0454261 0.0000
  3   -344.0204448487   0.033471465202 0.02973999  0.00088317  0.0988803 0.0000
  4   -344.0936303965  -0.073185547820 0.03248224  0.00069812  0.0681437 0.0000
  5   -344.1530590651  -0.059428668625 0.03707597  0.00057127  0.0715396 0.0000
  6   -344.2015084015  -0.048449336434 0.03815239  0.00056998  0.0686664 0.0000
  7   -344.2414483961  -0.039939994520 0.08408818  0.00130858  0.0603658 0.0000
  8   -344.3075782470  -0.066129850884 0.04157450  0.00083758  0.0283729 0.0000
  9   -344.3295202037  -0.021941956774 0.01589839  0.00062407  0.0197297 0.0000
 10   -344.3392234960  -0.009703292280 0.01194078  0.00055642  0.0098197 0.0000
 11   -344.3436350021  -0.004411506121 0.00869221  0.00031484  0.0084727 0.0000
 12   -344.3457051719  -0.002070169775 0.00567949  0.00015335  0.0064131 0.0000
 13   -344.3466742513  -0.000969079416 0.00492831  0.00015501  0.0056285 0.0000
 14   -344.3473488699  -0.000674618630 0.00373646  0.00009568  0.0024641 0.0000
 15   -344.3476014601  -0.000252590135 0.00255069  0.00006213  0.0016300 0.0000
 16   -344.3477249583  -0.000123498258 0.00209398  0.00004863  0.0011681 0.0000
 17   -344.3477887918  -0.000063833441 0.00288139  0.00006616  0.0007463 0.0000
               *** Restarting incremental Fock matrix formation ***
                                   *** Resetting DIIS ***
 18   -344.3478284387  -0.000039646958 0.00066569  0.00002285  0.0004274 0.0000
 19   -344.3478267457   0.000001693036 0.00043908  0.00001349  0.0007723 0.0000
 20   -344.3478319952  -0.000005249499 0.00043645  0.00000616  0.0002348 0.0000
 21   -344.3478328497  -0.000000854494 0.00043194  0.00000609  0.0001893 0.0000
 22   -344.3478335967  -0.000000746968 0.00046068  0.00000712  0.0001527 0.0000
 23   -344.3478343873  -0.000000790676 0.00023943  0.00000369  0.0001494 0.0000
 24   -344.3478347899  -0.000000402593 0.00032130  0.00000468  0.0001545 0.0000
 25   -344.3478352964  -0.000000506514 0.00030464  0.00000437  0.0001573 0.0000
 26   -344.3478357735  -0.000000477068 0.00015617  0.00000223  0.0001580 0.0000
 27   -344.3478360158  -0.000000242330 0.00009892  0.00000143  0.0001578 0.0000

 WARNING: the maximum gradient error descreased on average only by a factor   1.1
          during the last 20 iterations

                      *** Initiating the TRAH-SCF procedure ***


TRAH GRIDX
----------

General Integration Accuracy     IntAcc      ... 3.067
Radial Grid Type                 RadialGrid  ... OptM3 with GC (2021)
Angular Grid (max. ang.)         AngularGrid ... 1 (Lebedev-50)
Angular grid pruning method      GridPruning ... 4 (adaptive)
Weight generation scheme         WeightScheme... Becke
Basis function cutoff            BFCut       ... 1.0000e-11
Integration weight cutoff        WCut        ... 1.0000e-14
Angular grids for H and He will be reduced by one unit
Partially contracted basis set               ... on
Rotationally invariant grid construction     ... off

Total number of grid points                  ...     4355
Total number of batches                      ...       77
Average number of points per batch           ...       56
Average number of grid points per atom       ...      311


TRAH GRID
---------

General Integration Accuracy     IntAcc      ... 3.467
Radial Grid Type                 RadialGrid  ... OptM3 with GC (2021)
Angular Grid (max. ang.)         AngularGrid ... 1 (Lebedev-50)
Angular grid pruning method      GridPruning ... 4 (adaptive)
Weight generation scheme         WeightScheme... Becke
Basis function cutoff            BFCut       ... 1.0000e-11
Integration weight cutoff        WCut        ... 1.0000e-14
Angular grids for H and He will be reduced by one unit
Partially contracted basis set               ... off
Rotationally invariant grid construction     ... off

Total number of grid points                  ...     9435
Total number of batches                      ...      153
Average number of points per batch           ...       61
Average number of grid points per atom       ...      674

 --------------------------------------------------------------------------------------------
   Iter.        energy            ||Error||_2        Shift      TRadius  Mac/Mic        Rej.
 --------------------------------------------------------------------------------------------
    0       -344.347836173167     2.828215e-04                     0.400 (TRAH MAcro)   No
    0     dE    -7.992722e-08     5.899691e-04    -7.9927e-08      0.000 (TRAH MIcro)
    0     dE    -2.676061e-04     8.741005e-03    -1.0982e-03      0.400 (TRAH MIcro)
    0     dE    -2.850642e-04     4.607896e-03    -1.2079e-03      0.400 (TRAH MIcro)
    0     dE    -2.953664e-04     2.167992e-03    -1.2733e-03      0.400 (TRAH MIcro)
    0     dE    -3.000862e-04     2.330735e-03    -1.3033e-03      0.400 (TRAH MIcro)
    0     dE    -3.039792e-04     9.873425e-04    -1.3279e-03      0.400 (TRAH MIcro)
    0     dE    -3.044311e-04     5.705693e-04    -1.3307e-03      0.400 (TRAH MIcro)
    0     dE    -3.046028e-04     2.234364e-04    -1.3318e-03      0.400 (TRAH MIcro)
    0     dE    -3.046517e-04     1.576208e-04    -1.3321e-03      0.400 (TRAH MIcro)
    0     dE    -3.046616e-04     1.003533e-04    -1.3322e-03      0.400 (TRAH MIcro)
    0     dE    -3.046626e-04     6.074990e-05    -1.3322e-03      0.400 (TRAH MIcro)
    0     dE    -3.046626e-04     6.065336e-05    -1.3322e-03      0.400 (TRAH MIcro)
    0     dE    -3.046628e-04     6.077063e-05    -1.3322e-03      0.400 (TRAH MIcro)
    0     dE    -3.046626e-04     6.257913e-05    -1.3322e-03      0.400 (TRAH MIcro)
    1       -344.348000662746     1.869441e-02                     0.400 (TRAH MAcro)   No
    1     dE    -1.026624e-04     1.523954e-02    -1.0266e-04      0.005 (TRAH MIcro)
    1     dE    -1.362805e-04     2.030103e-03    -1.3627e-04      0.009 (TRAH MIcro)
    1     dE    -1.414194e-04     2.915075e-03    -1.4139e-04      0.014 (TRAH MIcro)
    1     dE    -1.600893e-04     1.117991e-02    -1.5972e-04      0.048 (TRAH MIcro)
    1     dE    -2.511695e-04     1.911532e-02    -2.4033e-04      0.212 (TRAH MIcro)
    1     dE    -4.865433e-04     5.464244e-03    -9.8628e-04      0.400 (TRAH MIcro)
    1     dE    -5.069169e-04     2.709650e-03    -1.1151e-03      0.400 (TRAH MIcro)
    1     dE    -4.882846e-04     1.519415e-03    -1.2324e-03      0.374 (TRAH MIcro)
    2       -344.348398328625     1.643688e-02                     0.480 (TRAH MAcro)   No
    2     dE    -7.492001e-05     1.551816e-02    -7.4918e-05      0.005 (TRAH MIcro)
    2     dE    -1.058296e-04     1.827444e-03    -1.0582e-04      0.008 (TRAH MIcro)
    2     dE    -1.085113e-04     1.720171e-03    -1.0850e-04      0.010 (TRAH MIcro)
    2     dE    -1.175436e-04     4.760904e-03    -1.1747e-04      0.025 (TRAH MIcro)
    2     dE    -1.378559e-04     8.189619e-03    -1.3724e-04      0.067 (TRAH MIcro)
    2     dE    -1.854415e-04     5.079823e-03    -1.8068e-04      0.162 (TRAH MIcro)
    2     dE    -2.259281e-04     5.956101e-03    -2.1393e-04      0.237 (TRAH MIcro)
    2     dE    -2.445795e-04     4.907647e-03    -2.2808e-04      0.269 (TRAH MIcro)
    2     dE    -2.546649e-04     1.427680e-03    -2.3543e-04      0.286 (TRAH MIcro)
    3       -344.348676564276     9.566424e-03                     0.576 (TRAH MAcro)   No
    3     dE    -2.522443e-05     9.221248e-03    -2.5224e-05      0.003 (TRAH MIcro)
    3     dE    -3.584925e-05     1.077422e-03    -3.5848e-05      0.005 (TRAH MIcro)
    3     dE    -3.662028e-05     9.682077e-04    -3.6619e-05      0.005 (TRAH MIcro)
    3     dE    -3.828890e-05     1.586355e-03    -3.8286e-05      0.009 (TRAH MIcro)
    3     dE    -4.357902e-05     4.423637e-03    -4.3545e-05      0.028 (TRAH MIcro)
    3     dE    -5.533663e-05     2.760934e-03    -5.5041e-05      0.073 (TRAH MIcro)
    3     dE    -5.900888e-05     1.281286e-03    -5.8562e-05      0.087 (TRAH MIcro)
    3     dE    -6.103132e-05     1.465572e-03    -6.0483e-05      0.095 (TRAH MIcro)
    3     dE    -6.259988e-05     1.108519e-03    -6.1963e-05      0.101 (TRAH MIcro)
    3     dE    -6.379097e-05     6.805504e-04    -6.3079e-05      0.106 (TRAH MIcro)
    4       -344.348755530996     1.549289e-03                     0.691 (TRAH MAcro)   No
    4     dE    -6.416357e-07     1.566930e-03    -6.4164e-07      0.000 (TRAH MIcro)
    4     dE    -1.475171e-06     1.165545e-03    -1.4752e-06      0.002 (TRAH MIcro)
    4     dE    -2.309900e-06     1.190706e-03    -2.3098e-06      0.006 (TRAH MIcro)
    4     dE    -3.811225e-06     1.344484e-03    -3.8104e-06      0.014 (TRAH MIcro)
    4     dE    -5.278887e-06     1.675149e-03    -5.2761e-06      0.023 (TRAH MIcro)
    4     dE    -7.251788e-06     1.203214e-03    -7.2430e-06      0.035 (TRAH MIcro)
    4     dE    -9.629237e-06     1.624353e-03    -9.6052e-06      0.050 (TRAH MIcro)
    4     dE    -1.102885e-05     1.218870e-03    -1.0990e-05      0.059 (TRAH MIcro)
    4     dE    -1.227491e-05     8.840918e-04    -1.2219e-05      0.068 (TRAH MIcro)
    4     dE    -1.298553e-05     9.080834e-04    -1.2918e-05      0.072 (TRAH MIcro)
    4     dE    -1.345742e-05     3.254013e-04    -1.3381e-05      0.076 (TRAH MIcro)
    4     dE    -1.352263e-05     1.289930e-04    -1.3445e-05      0.076 (TRAH MIcro)
    5       -344.348775202375     6.981928e-04                           (NR   MAcro)
    5     dE    -2.895510e-07     2.055504e-04                           (NR   MIcro)
    5     dE    -5.983753e-07     7.259205e-04                           (NR   MIcro)
    5     dE    -2.014978e-06     1.402960e-03                           (NR   MIcro)
    5     dE    -3.837223e-06     1.375175e-03                           (NR   MIcro)
    5     dE    -5.142482e-06     6.003243e-04                           (NR   MIcro)
    5     dE    -5.370282e-06     2.344934e-04                           (NR   MIcro)
    5     dE    -5.403086e-06     1.444284e-04                           (NR   MIcro)
    5     dE    -5.417829e-06     6.815132e-05                           (NR   MIcro)
    5     dE    -5.422614e-06     5.484694e-05                           (NR   MIcro)
    5     dE    -5.427579e-06     5.150647e-05                           (NR   MIcro)
    5     dE    -5.429826e-06     2.515814e-05                           (NR   MIcro)
    5     dE    -5.430103e-06     1.165249e-05                           (NR   MIcro)
    5     dE    -5.430178e-06     6.479730e-06                           (NR   MIcro)
    5     dE    -5.430221e-06     7.835069e-06                           (NR   MIcro)
    5     dE    -5.430221e-06     7.944813e-06                           (NR   MIcro)
    6       -344.348781799876     4.416579e-04                           (NR   MAcro)
    6     dE    -7.969747e-08     4.681383e-05                           (NR   MIcro)
    6     dE    -8.792132e-08     1.023185e-04                           (NR   MIcro)
    6     dE    -1.116891e-07     2.125364e-04                           (NR   MIcro)
    6     dE    -1.930361e-07     3.684873e-04                           (NR   MIcro)
    6     dE    -4.895962e-07     3.811110e-04                           (NR   MIcro)
    6     dE    -6.654328e-07     3.294652e-04                           (NR   MIcro)
    6     dE    -7.660719e-07     2.643417e-04                           (NR   MIcro)
    6     dE    -8.187605e-07     1.135714e-04                           (NR   MIcro)
    6     dE    -8.253396e-07     5.124571e-05                           (NR   MIcro)
    6     dE    -8.267658e-07     1.430938e-05                           (NR   MIcro)
    6     dE    -8.268581e-07     5.770938e-06                           (NR   MIcro)
    6     dE    -8.268593e-07     4.667073e-06                           (NR   MIcro)
    6     dE    -8.268639e-07     4.881425e-06                           (NR   MIcro)
    6     dE    -8.268816e-07     6.419766e-06                           (NR   MIcro)
    6     dE    -8.268843e-07     6.009481e-06                           (NR   MIcro)
    7       -344.348781940872     1.658767e-04                           (NR   MAcro)
    7     dE    -1.511297e-08     4.450791e-05                           (NR   MIcro)
    7     dE    -3.817039e-08     1.981293e-04                           (NR   MIcro)
    7     dE    -1.220622e-07     3.839461e-04                           (NR   MIcro)
    7     dE    -3.546221e-07     5.667062e-04                           (NR   MIcro)
    7     dE    -1.038383e-06     6.346361e-04                           (NR   MIcro)
    7     dE    -1.748088e-06     7.050504e-04                           (NR   MIcro)
    7     dE    -2.135078e-06     4.815010e-04                           (NR   MIcro)
    7     dE    -2.276086e-06     1.929259e-04                           (NR   MIcro)
    7     dE    -2.295109e-06     9.044978e-05                           (NR   MIcro)
    7     dE    -2.299779e-06     2.607486e-05                           (NR   MIcro)
    7     dE    -2.300186e-06     1.584661e-05                           (NR   MIcro)
    7     dE    -2.300437e-06     1.834924e-05                           (NR   MIcro)
    7     dE    -2.300446e-06     1.768460e-05                           (NR   MIcro)
    7     dE    -2.300446e-06     1.761375e-05                           (NR   MIcro)
    7     dE    -2.300461e-06     1.859715e-05                           (NR   MIcro)
    8       -344.348769369969     1.861700e-03                     0.829 (TRAH MAcro)   No
    8     dE    -1.015728e-06     1.567122e-03    -1.0157e-06      0.001 (TRAH MIcro)
    8     dE    -1.490745e-06     5.229259e-04    -1.4907e-06      0.001 (TRAH MIcro)
    8     dE    -2.442615e-06     1.622355e-03    -2.4424e-06      0.009 (TRAH MIcro)
    8     dE    -4.519604e-06     2.989808e-03    -4.5160e-06      0.028 (TRAH MIcro)
    8     dE    -6.964098e-06     1.443774e-03    -6.9461e-06      0.051 (TRAH MIcro)
    8     dE    -7.810285e-06     4.626089e-04    -7.7834e-06      0.059 (TRAH MIcro)
    8     dE    -7.999045e-06     3.541953e-04    -7.9698e-06      0.061 (TRAH MIcro)
    8     dE    -8.065397e-06     1.599186e-04    -8.0353e-06      0.061 (TRAH MIcro)
    9       -344.348780114590     4.674650e-04                           (NR   MAcro)
    9     dE    -9.387789e-08     2.004413e-04                           (NR   MIcro)
    9     dE    -1.275034e-07     1.460921e-04                           (NR   MIcro)
    9     dE    -1.907265e-07     3.076398e-04                           (NR   MIcro)
    9     dE    -4.456462e-07     5.255948e-04                           (NR   MIcro)
    9     dE    -9.622396e-07     6.474444e-04                           (NR   MIcro)
    9     dE    -1.520977e-06     7.260705e-04                           (NR   MIcro)
    9     dE    -2.260653e-06     6.153051e-04                           (NR   MIcro)
    9     dE    -2.505832e-06     3.387765e-04                           (NR   MIcro)
    9     dE    -2.574344e-06     8.204505e-05                           (NR   MIcro)
    9     dE    -2.577569e-06     2.629984e-05                           (NR   MIcro)
    9     dE    -2.577988e-06     1.097149e-05                           (NR   MIcro)
    9     dE    -2.578045e-06     8.155487e-06                           (NR   MIcro)
    9     dE    -2.578129e-06     8.443251e-06                           (NR   MIcro)
    9     dE    -2.578179e-06     6.721603e-06                           (NR   MIcro)
    9     dE    -2.578190e-06     6.849952e-06                           (NR   MIcro)
   10       -344.348782145020     3.331756e-04                           (NR   MAcro)
   10     dE    -4.441276e-08     3.072333e-05                           (NR   MIcro)
   10     dE    -4.583866e-08     3.543376e-05                           (NR   MIcro)
   10     dE    -4.863467e-08     6.616202e-05                           (NR   MIcro)
   10     dE    -5.651690e-08     1.170969e-04                           (NR   MIcro)
   10     dE    -1.033187e-07     1.813103e-04                           (NR   MIcro)
   10     dE    -1.777001e-07     2.815313e-04                           (NR   MIcro)
   10     dE    -2.888602e-07     3.280723e-04                           (NR   MIcro)
   10     dE    -3.819763e-07     1.882795e-04                           (NR   MIcro)
   10     dE    -4.008714e-07     9.063175e-05                           (NR   MIcro)
   10     dE    -4.055819e-07     2.323323e-05                           (NR   MIcro)
   10     dE    -4.059177e-07     1.047303e-05                           (NR   MIcro)
   10     dE    -4.060613e-07     9.721586e-06                           (NR   MIcro)
   10     dE    -4.061080e-07     8.726144e-06                           (NR   MIcro)
   10     dE    -4.061270e-07     6.189966e-06                           (NR   MIcro)
   10     dE    -4.061301e-07     5.943474e-06                           (NR   MIcro)
   11       -344.348781418719     1.941660e-04                           (NR   MAcro)
   11     dE    -2.648925e-08     8.557494e-05                           (NR   MIcro)
   11     dE    -1.416444e-07     4.353897e-04                           (NR   MIcro)
   11     dE    -4.445590e-07     6.543502e-04                           (NR   MIcro)
   11     dE    -9.128799e-07     6.320619e-04                           (NR   MIcro)
   11     dE    -1.271897e-06     3.308545e-04                           (NR   MIcro)
   11     dE    -1.397592e-06     2.330529e-04                           (NR   MIcro)
   11     dE    -1.438082e-06     1.205487e-04                           (NR   MIcro)
   11     dE    -1.446094e-06     5.300029e-05                           (NR   MIcro)
   11     dE    -1.447453e-06     2.436146e-05                           (NR   MIcro)
   11     dE    -1.447780e-06     8.778816e-06                           (NR   MIcro)
   11     dE    -1.447803e-06     5.622057e-06                           (NR   MIcro)
   11     dE    -1.447804e-06     5.102103e-06                           (NR   MIcro)
   11     dE    -1.447804e-06     5.427273e-06                           (NR   MIcro)
   11     dE    -1.447810e-06     6.603915e-06                           (NR   MIcro)
   11     dE    -1.447818e-06     7.004146e-06                           (NR   MIcro)
   12       -344.348781833338     2.763449e-04                           (NR   MAcro)
   12     dE    -3.491765e-08     4.589034e-05                           (NR   MIcro)
   12     dE    -5.126648e-08     1.622631e-04                           (NR   MIcro)
   12     dE    -1.104731e-07     3.349214e-04                           (NR   MIcro)
   12     dE    -3.004982e-07     5.473932e-04                           (NR   MIcro)
   12     dE    -1.008526e-06     6.597118e-04                           (NR   MIcro)
   12     dE    -1.862338e-06     8.313877e-04                           (NR   MIcro)
   12     dE    -2.536031e-06     6.832541e-04                           (NR   MIcro)
   12     dE    -2.852976e-06     2.903297e-04                           (NR   MIcro)
   12     dE    -2.896821e-06     1.365013e-04                           (NR   MIcro)
   12     dE    -2.909187e-06     4.770606e-05                           (NR   MIcro)
   12     dE    -2.912040e-06     3.930386e-05                           (NR   MIcro)
   12     dE    -2.914403e-06     3.810851e-05                           (NR   MIcro)
   12     dE    -2.914885e-06     2.430487e-05                           (NR   MIcro)
   12     dE    -2.914920e-06     1.934747e-05                           (NR   MIcro)
   12     dE    -2.914935e-06     1.978655e-05                           (NR   MIcro)
   13       -344.348765745321     2.320981e-03                     0.995 (TRAH MAcro)   No
   13     dE    -1.578379e-06     1.941406e-03    -1.5784e-06      0.001 (TRAH MIcro)
   13     dE    -2.261302e-06     5.594659e-04    -2.2613e-06      0.001 (TRAH MIcro)
   13     dE    -3.253504e-06     1.654362e-03    -3.2533e-06      0.009 (TRAH MIcro)
   13     dE    -5.526929e-06     3.221640e-03    -5.5228e-06      0.027 (TRAH MIcro)
   13     dE    -8.404800e-06     1.652062e-03    -8.3828e-06      0.051 (TRAH MIcro)
   13     dE    -9.460157e-06     4.801942e-04    -9.4261e-06      0.060 (TRAH MIcro)
   13     dE    -9.659960e-06     3.565182e-04    -9.6233e-06      0.062 (TRAH MIcro)
   13     dE    -9.729912e-06     1.755620e-04    -9.6922e-06      0.062 (TRAH MIcro)
   14       -344.348778923386     4.934141e-04                           (NR   MAcro)
   14     dE    -1.123253e-07     2.306013e-04                           (NR   MIcro)
   14     dE    -1.626294e-07     1.985663e-04                           (NR   MIcro)
   14     dE    -2.919682e-07     4.388070e-04                           (NR   MIcro)
   14     dE    -7.497026e-07     6.846936e-04                           (NR   MIcro)
   14     dE    -1.516833e-06     7.785633e-04                           (NR   MIcro)
   14     dE    -2.260483e-06     8.212353e-04                           (NR   MIcro)
   14     dE    -3.134763e-06     6.071875e-04                           (NR   MIcro)
   14     dE    -3.360837e-06     3.078612e-04                           (NR   MIcro)
   14     dE    -3.415436e-06     7.928464e-05                           (NR   MIcro)
   14     dE    -3.419276e-06     3.101787e-05                           (NR   MIcro)
   14     dE    -3.420701e-06     2.919929e-05                           (NR   MIcro)
   14     dE    -3.421604e-06     2.673673e-05                           (NR   MIcro)
   14     dE    -3.422182e-06     1.194583e-05                           (NR   MIcro)
   14     dE    -3.422258e-06     7.045745e-06                           (NR   MIcro)
   14     dE    -3.422270e-06     7.416936e-06                           (NR   MIcro)
   15       -344.348782215951     3.761299e-04                           (NR   MAcro)
   15     dE    -5.506300e-08     2.987585e-05                           (NR   MIcro)
   15     dE    -5.549070e-08     1.469009e-05                           (NR   MIcro)
   15     dE    -5.563889e-08     6.783995e-06                           (NR   MIcro)
   15     dE    -5.568237e-08     5.822392e-06                           (NR   MIcro)
   15     dE    -5.576046e-08     6.250241e-06                           (NR   MIcro)
   15     dE    -5.584243e-08     9.644140e-06                           (NR   MIcro)
   15     dE    -5.607336e-08     1.979797e-05                           (NR   MIcro)
   15     dE    -5.743854e-08     4.429255e-05                           (NR   MIcro)
   15     dE    -5.993643e-08     5.050911e-05                           (NR   MIcro)
   15     dE    -6.209803e-08     1.969276e-05                           (NR   MIcro)
   15     dE    -6.232293e-08     7.869575e-06                           (NR   MIcro)
   15     dE    -6.237476e-08     4.285578e-06                           (NR   MIcro)
   15     dE    -6.239724e-08     4.142323e-06                           (NR   MIcro)
   15     dE    -6.241725e-08     2.394376e-06                           (NR   MIcro)
   15     dE    -6.241981e-08     9.571206e-07                           (NR   MIcro)
   16       -344.348782263674     1.001738e-05                           (NR   MAcro)
   16     dE    -2.907012e-10     1.727680e-05                           (NR   MIcro)
   16     dE    -3.811584e-09     6.990344e-05                           (NR   MIcro)
   16     dE    -1.282451e-08     8.252275e-05                           (NR   MIcro)
   16     dE    -2.490324e-08     9.439171e-05                           (NR   MIcro)
   16     dE    -3.215307e-08     6.320195e-05                           (NR   MIcro)
   16     dE    -3.604394e-08     3.660601e-05                           (NR   MIcro)
   16     dE    -3.683524e-08     1.530863e-05                           (NR   MIcro)
   16     dE    -3.695553e-08     6.185022e-06                           (NR   MIcro)
   16     dE    -3.697761e-08     3.096572e-06                           (NR   MIcro)
   16     dE    -3.698385e-08     2.180485e-06                           (NR   MIcro)
   16     dE    -3.698637e-08     2.109858e-06                           (NR   MIcro)
   16     dE    -3.698773e-08     1.854803e-06                           (NR   MIcro)
   16     dE    -3.698822e-08     1.721651e-06                           (NR   MIcro)
   16     dE    -3.698830e-08     1.678046e-06                           (NR   MIcro)
   16     dE    -3.698830e-08     1.679108e-06                           (NR   MIcro)
   17       -344.348782217035     2.349715e-05                           (NR   MAcro)
   17     dE    -1.653175e-09     4.257786e-05                           (NR   MIcro)
   17     dE    -3.388329e-08     1.882205e-04                           (NR   MIcro)
   17     dE    -7.573937e-08     2.121800e-04                           (NR   MIcro)
   17     dE    -1.561495e-07     2.696501e-04                           (NR   MIcro)
   17     dE    -2.553780e-07     2.503563e-04                           (NR   MIcro)
   17     dE    -3.057659e-07     1.178720e-04                           (NR   MIcro)
   17     dE    -3.130660e-07     5.710660e-05                           (NR   MIcro)
   17     dE    -3.150194e-07     2.396090e-05                           (NR   MIcro)
   17     dE    -3.153563e-07     1.103954e-05                           (NR   MIcro)
   17     dE    -3.154027e-07     5.265282e-06                           (NR   MIcro)
   17     dE    -3.154118e-07     4.919791e-06                           (NR   MIcro)
   17     dE    -3.154162e-07     5.098512e-06                           (NR   MIcro)
   17     dE    -3.154162e-07     5.052391e-06                           (NR   MIcro)
   17     dE    -3.154164e-07     5.136126e-06                           (NR   MIcro)
   17     dE    -3.154167e-07     5.294625e-06                           (NR   MIcro)
   18       -344.348781225173     2.112069e-04                           (NR   MAcro)
   18     dE    -3.201494e-08     9.622643e-05                           (NR   MIcro)
   18     dE    -1.701095e-07     4.755144e-04                           (NR   MIcro)
   18     dE    -5.480077e-07     7.149581e-04                           (NR   MIcro)
   18     dE    -1.078725e-06     6.849459e-04                           (NR   MIcro)
   18     dE    -1.489731e-06     3.346931e-04                           (NR   MIcro)
   18     dE    -1.614681e-06     2.359430e-04                           (NR   MIcro)
   18     dE    -1.656673e-06     1.220339e-04                           (NR   MIcro)
   18     dE    -1.664789e-06     5.559238e-05                           (NR   MIcro)
   18     dE    -1.666285e-06     2.517546e-05                           (NR   MIcro)
   18     dE    -1.666621e-06     8.968218e-06                           (NR   MIcro)
   18     dE    -1.666640e-06     5.879105e-06                           (NR   MIcro)
   18     dE    -1.666641e-06     5.466074e-06                           (NR   MIcro)
   18     dE    -1.666642e-06     5.959026e-06                           (NR   MIcro)
   18     dE    -1.666648e-06     7.111611e-06                           (NR   MIcro)
   18     dE    -1.666654e-06     7.349042e-06                           (NR   MIcro)
   19       -344.348781876840     2.967714e-04                           (NR   MAcro)
   19     dE    -3.882848e-08     4.320874e-05                           (NR   MIcro)
   19     dE    -5.086603e-08     1.355238e-04                           (NR   MIcro)
   19     dE    -9.255820e-08     2.816407e-04                           (NR   MIcro)
   19     dE    -2.306839e-07     4.713864e-04                           (NR   MIcro)
   19     dE    -7.728957e-07     5.855575e-04                           (NR   MIcro)
   19     dE    -1.454715e-06     7.572749e-04                           (NR   MIcro)
   19     dE    -2.029904e-06     6.525451e-04                           (NR   MIcro)
   19     dE    -2.331650e-06     2.817699e-04                           (NR   MIcro)
   19     dE    -2.372046e-06     1.328642e-04                           (NR   MIcro)
   19     dE    -2.383280e-06     4.301695e-05                           (NR   MIcro)
   19     dE    -2.385532e-06     3.364559e-05                           (NR   MIcro)
   19     dE    -2.387388e-06     3.406231e-05                           (NR   MIcro)
   19     dE    -2.387778e-06     2.223884e-05                           (NR   MIcro)
   19     dE    -2.387815e-06     1.708929e-05                           (NR   MIcro)
   19     dE    -2.387820e-06     1.709377e-05                           (NR   MIcro)
   20       -344.348770503729     1.755471e-03                     1.194 (TRAH MAcro)   No
   20     dE    -9.030939e-07     1.480290e-03    -9.0310e-07      0.001 (TRAH MIcro)
   20     dE    -1.330669e-06     5.035038e-04    -1.3307e-06      0.001 (TRAH MIcro)
   20     dE    -2.229529e-06     1.582754e-03    -2.2293e-06      0.009 (TRAH MIcro)
   20     dE    -4.184736e-06     2.901375e-03    -4.1815e-06      0.028 (TRAH MIcro)
   20     dE    -6.498300e-06     1.407957e-03    -6.4820e-06      0.050 (TRAH MIcro)
   20     dE    -7.312978e-06     4.613689e-04    -7.2884e-06      0.058 (TRAH MIcro)
   20     dE    -7.499446e-06     3.549160e-04    -7.4726e-06      0.060 (TRAH MIcro)
   20     dE    -7.565615e-06     1.581652e-04    -7.5380e-06      0.061 (TRAH MIcro)
   21       -344.348780473586     4.578800e-04                           (NR   MAcro)
   21     dE    -8.763877e-08     1.932490e-04                           (NR   MIcro)
   21     dE    -1.169191e-07     1.291713e-04                           (NR   MIcro)
   21     dE    -1.644027e-07     2.641906e-04                           (NR   MIcro)
   21     dE    -3.535834e-07     4.572302e-04                           (NR   MIcro)
   21     dE    -7.551580e-07     5.827602e-04                           (NR   MIcro)
   21     dE    -1.232015e-06     6.847256e-04                           (NR   MIcro)
   21     dE    -1.929568e-06     6.260750e-04                           (NR   MIcro)
   21     dE    -2.194113e-06     3.586681e-04                           (NR   MIcro)
   21     dE    -2.272918e-06     9.175658e-05                           (NR   MIcro)
   21     dE    -2.278136e-06     3.777553e-05                           (NR   MIcro)
   21     dE    -2.280160e-06     3.524819e-05                           (NR   MIcro)
   21     dE    -2.281591e-06     3.215326e-05                           (NR   MIcro)
   21     dE    -2.282407e-06     1.258983e-05                           (NR   MIcro)
   21     dE    -2.282496e-06     6.647969e-06                           (NR   MIcro)
   21     dE    -2.282508e-06     6.657598e-06                           (NR   MIcro)
   22       -344.348782098185     3.144343e-04                           (NR   MAcro)
   22     dE    -4.036934e-08     3.215882e-05                           (NR   MIcro)
   22     dE    -4.288720e-08     5.314002e-05                           (NR   MIcro)
   22     dE    -4.943754e-08     1.071180e-04                           (NR   MIcro)
   22     dE    -7.009089e-08     1.891600e-04                           (NR   MIcro)
   22     dE    -1.820251e-07     2.727046e-04                           (NR   MIcro)
   22     dE    -3.422509e-07     3.949657e-04                           (NR   MIcro)
   22     dE    -5.312483e-07     4.007067e-04                           (NR   MIcro)
   22     dE    -6.553183e-07     2.044213e-04                           (NR   MIcro)
   22     dE    -6.769669e-07     9.718034e-05                           (NR   MIcro)
   22     dE    -6.823847e-07     2.449992e-05                           (NR   MIcro)
   22     dE    -6.827774e-07     1.121921e-05                           (NR   MIcro)
   22     dE    -6.829384e-07     1.123331e-05                           (NR   MIcro)
   22     dE    -6.829767e-07     1.020179e-05                           (NR   MIcro)
   22     dE    -6.829904e-07     8.336002e-06                           (NR   MIcro)
   22     dE    -6.829943e-07     8.313525e-06                           (NR   MIcro)
   23       -344.348780445426     3.644870e-04                           (NR   MAcro)
   23     dE    -7.479180e-08     1.082412e-04                           (NR   MIcro)
   23     dE    -2.231060e-07     5.020567e-04                           (NR   MIcro)
   23     dE    -6.850652e-07     8.464109e-04                           (NR   MIcro)
   23     dE    -1.471244e-06     8.767344e-04                           (NR   MIcro)
   23     dE    -2.141017e-06     4.017925e-04                           (NR   MIcro)
   23     dE    -2.309749e-06     2.709114e-04                           (NR   MIcro)
   23     dE    -2.370407e-06     1.636998e-04                           (NR   MIcro)
   23     dE    -2.386502e-06     7.518671e-05                           (NR   MIcro)
   23     dE    -2.389301e-06     3.388903e-05                           (NR   MIcro)
   23     dE    -2.389919e-06     1.106981e-05                           (NR   MIcro)
   23     dE    -2.389957e-06     6.308148e-06                           (NR   MIcro)
   23     dE    -2.389957e-06     5.785951e-06                           (NR   MIcro)
   23     dE    -2.389960e-06     6.763476e-06                           (NR   MIcro)
   23     dE    -2.389963e-06     7.501142e-06                           (NR   MIcro)
   23     dE    -2.389981e-06     9.337511e-06                           (NR   MIcro)
   24       -344.348782057449     3.419731e-04                           (NR   MAcro)
   24     dE    -4.754049e-08     3.507040e-05                           (NR   MIcro)
   24     dE    -5.087810e-08     6.210816e-05                           (NR   MIcro)
   24     dE    -5.948772e-08     1.229831e-04                           (NR   MIcro)
   24     dE    -8.719526e-08     2.161845e-04                           (NR   MIcro)
   24     dE    -2.199811e-07     3.043300e-04                           (NR   MIcro)
   24     dE    -4.262433e-07     4.453963e-04                           (NR   MIcro)
   24     dE    -6.673575e-07     4.641552e-04                           (NR   MIcro)
   24     dE    -8.424243e-07     2.298144e-04                           (NR   MIcro)
   24     dE    -8.696141e-07     1.076426e-04                           (NR   MIcro)
   24     dE    -8.765310e-07     3.195179e-05                           (NR   MIcro)
   24     dE    -8.774535e-07     1.759721e-05                           (NR   MIcro)
   24     dE    -8.779296e-07     1.842679e-05                           (NR   MIcro)
   24     dE    -8.781344e-07     1.452470e-05                           (NR   MIcro)
   24     dE    -8.781719e-07     9.153510e-06                           (NR   MIcro)
   24     dE    -8.781754e-07     8.899797e-06                           (NR   MIcro)
   25       -344.348779741663     4.822958e-04                           (NR   MAcro)
   25     dE    -1.212462e-07     1.207231e-04                           (NR   MIcro)
   25     dE    -2.829887e-07     5.257496e-04                           (NR   MIcro)
   25     dE    -8.149489e-07     9.241422e-04                           (NR   MIcro)
   25     dE    -1.770817e-06     1.002814e-03                           (NR   MIcro)
   25     dE    -2.646337e-06     4.370022e-04                           (NR   MIcro)
   25     dE    -2.834789e-06     2.857297e-04                           (NR   MIcro)
   25     dE    -2.902717e-06     1.816604e-04                           (NR   MIcro)
   25     dE    -2.923696e-06     8.630299e-05                           (NR   MIcro)
   25     dE    -2.927493e-06     3.899065e-05                           (NR   MIcro)
   25     dE    -2.928306e-06     1.240940e-05                           (NR   MIcro)
   25     dE    -2.928351e-06     7.065941e-06                           (NR   MIcro)
   25     dE    -2.928353e-06     6.233884e-06                           (NR   MIcro)
   25     dE    -2.928355e-06     7.201105e-06                           (NR   MIcro)
   25     dE    -2.928361e-06     8.300705e-06                           (NR   MIcro)
   25     dE    -2.928369e-06     8.678338e-06                           (NR   MIcro)
   26       -344.348782161711     3.643535e-04                           (NR   MAcro)
   26     dE    -5.228339e-08     3.122849e-05                           (NR   MIcro)
   26     dE    -5.337786e-08     2.788598e-05                           (NR   MIcro)
   26     dE    -5.491099e-08     4.560521e-05                           (NR   MIcro)
   26     dE    -5.872251e-08     7.934476e-05                           (NR   MIcro)
   26     dE    -7.851147e-08     1.220297e-04                           (NR   MIcro)
   26     dE    -1.162706e-07     2.069066e-04                           (NR   MIcro)
   26     dE    -1.840410e-07     2.830458e-04                           (NR   MIcro)
   26     dE    -2.696804e-07     1.807617e-04                           (NR   MIcro)
   26     dE    -2.872454e-07     8.837048e-05                           (NR   MIcro)
   26     dE    -2.918820e-07     2.546329e-05                           (NR   MIcro)
   26     dE    -2.924584e-07     1.351620e-05                           (NR   MIcro)
   26     dE    -2.928093e-07     1.489087e-05                           (NR   MIcro)
   26     dE    -2.929565e-07     1.100062e-05                           (NR   MIcro)
   26     dE    -2.929990e-07     4.895081e-06                           (NR   MIcro)
   26     dE    -2.930010e-07     4.374885e-06                           (NR   MIcro)
   27       -344.348781765816     1.278409e-04                           (NR   MAcro)
   27     dE    -1.385962e-08     7.342088e-05                           (NR   MIcro)
   27     dE    -9.571068e-08     3.711406e-04                           (NR   MIcro)
   27     dE    -3.175173e-07     5.285663e-04                           (NR   MIcro)
   27     dE    -6.126805e-07     5.218081e-04                           (NR   MIcro)
   27     dE    -8.680789e-07     2.892137e-04                           (NR   MIcro)
   27     dE    -9.636109e-07     2.082277e-04                           (NR   MIcro)
   27     dE    -9.935594e-07     9.985660e-05                           (NR   MIcro)
   27     dE    -9.988910e-07     4.357472e-05                           (NR   MIcro)
   27     dE    -9.998340e-07     2.015127e-05                           (NR   MIcro)
   27     dE    -1.000059e-06     7.972169e-06                           (NR   MIcro)
   27     dE    -1.000076e-06     5.685535e-06                           (NR   MIcro)
   27     dE    -1.000078e-06     5.096823e-06                           (NR   MIcro)
   27     dE    -1.000078e-06     5.073788e-06                           (NR   MIcro)
   27     dE    -1.000084e-06     5.997598e-06                           (NR   MIcro)
   27     dE    -1.000084e-06     5.905685e-06                           (NR   MIcro)
   28       -344.348781776257     2.261775e-04                           (NR   MAcro)
   28     dE    -2.614733e-08     5.201048e-05                           (NR   MIcro)
   28     dE    -5.515367e-08     2.231565e-04                           (NR   MIcro)
   28     dE    -1.647571e-07     4.524127e-04                           (NR   MIcro)
   28     dE    -4.920563e-07     7.014002e-04                           (NR   MIcro)
   28     dE    -1.538202e-06     7.924671e-04                           (NR   MIcro)
   28     dE    -2.733454e-06     9.546740e-04                           (NR   MIcro)
   28     dE    -3.516614e-06     7.068213e-04                           (NR   MIcro)
   28     dE    -3.836297e-06     2.771755e-04                           (NR   MIcro)
   28     dE    -3.874274e-06     1.308963e-04                           (NR   MIcro)
   28     dE    -3.885280e-06     4.338421e-05                           (NR   MIcro)
   28     dE    -3.887543e-06     3.585114e-05                           (NR   MIcro)
   28     dE    -3.889083e-06     3.541449e-05                           (NR   MIcro)
   28     dE    -3.889437e-06     2.573195e-05                           (NR   MIcro)
   28     dE    -3.889445e-06     2.361584e-05                           (NR   MIcro)
   28     dE    -3.889448e-06     2.369895e-05                           (NR   MIcro)
   29       -344.348754032879     3.572041e-03                     1.433 (TRAH MAcro)   No
   29     dE    -3.739564e-06     2.964346e-03    -3.7396e-06      0.001 (TRAH MIcro)
   29     dE    -5.191613e-06     6.742580e-04    -5.1916e-06      0.002 (TRAH MIcro)
   29     dE    -6.347643e-06     1.756603e-03    -6.3472e-06      0.008 (TRAH MIcro)
   29     dE    -9.114743e-06     3.707087e-03    -9.1085e-06      0.026 (TRAH MIcro)
   29     dE    -1.317096e-05     2.176338e-03    -1.3134e-05      0.053 (TRAH MIcro)
   29     dE    -1.492162e-05     5.584628e-04    -1.4860e-05      0.065 (TRAH MIcro)
   29     dE    -1.518286e-05     3.883277e-04    -1.5116e-05      0.066 (TRAH MIcro)
   29     dE    -1.526835e-05     2.058222e-04    -1.5200e-05      0.067 (TRAH MIcro)
   30       -344.348774864944     5.813099e-04                           (NR   MAcro)
   30     dE    -1.832800e-07     3.091684e-04                           (NR   MIcro)
   30     dE    -2.924230e-07     3.462777e-04                           (NR   MIcro)
   30     dE    -7.134384e-07     7.820822e-04                           (NR   MIcro)
   30     dE    -1.930038e-06     1.034433e-03                           (NR   MIcro)
   30     dE    -3.392840e-06     9.944097e-04                           (NR   MIcro)
   30     dE    -4.461364e-06     9.192740e-04                           (NR   MIcro)
   30     dE    -5.368383e-06     5.559364e-04                           (NR   MIcro)
   30     dE    -5.543962e-06     2.557640e-04                           (NR   MIcro)
   30     dE    -5.579922e-06     6.484047e-05                           (NR   MIcro)
   30     dE    -5.582232e-06     2.307453e-05                           (NR   MIcro)
   30     dE    -5.582811e-06     1.736682e-05                           (NR   MIcro)
   30     dE    -5.583093e-06     1.700691e-05                           (NR   MIcro)
   30     dE    -5.583378e-06     1.056944e-05                           (NR   MIcro)
   30     dE    -5.583436e-06     7.611688e-06                           (NR   MIcro)
   30     dE    -5.583451e-06     8.429201e-06                           (NR   MIcro)
   31       -344.348781731289     4.540285e-04                           (NR   MAcro)
   31     dE    -8.466204e-08     4.979266e-05                           (NR   MIcro)
   31     dE    -9.409783e-08     1.112959e-04                           (NR   MIcro)
   31     dE    -1.241459e-07     2.405397e-04                           (NR   MIcro)
   31     dE    -2.243168e-07     4.213499e-04                           (NR   MIcro)
   31     dE    -6.279910e-07     4.048914e-04                           (NR   MIcro)
   31     dE    -7.917489e-07     3.093483e-04                           (NR   MIcro)
   31     dE    -8.780041e-07     2.323809e-04                           (NR   MIcro)
   31     dE    -9.198205e-07     1.108601e-04                           (NR   MIcro)
   31     dE    -9.262862e-07     5.148057e-05                           (NR   MIcro)
   31     dE    -9.277559e-07     1.399487e-05                           (NR   MIcro)
   31     dE    -9.278394e-07     6.154108e-06                           (NR   MIcro)
   31     dE    -9.278401e-07     5.254817e-06                           (NR   MIcro)
   31     dE    -9.278438e-07     5.358625e-06                           (NR   MIcro)
   31     dE    -9.278623e-07     6.927170e-06                           (NR   MIcro)
   31     dE    -9.278650e-07     6.569702e-06                           (NR   MIcro)
   32       -344.348781931645     1.806042e-04                           (NR   MAcro)
   32     dE    -1.714500e-08     4.381404e-05                           (NR   MIcro)
   32     dE    -3.762457e-08     1.857453e-04                           (NR   MIcro)
   32     dE    -1.146917e-07     3.696071e-04                           (NR   MIcro)
   32     dE    -3.293829e-07     5.567008e-04                           (NR   MIcro)
   32     dE    -1.005325e-06     6.282357e-04                           (NR   MIcro)
   32     dE    -1.738159e-06     7.226938e-04                           (NR   MIcro)
   32     dE    -2.143890e-06     5.054856e-04                           (NR   MIcro)
   32     dE    -2.303692e-06     1.984811e-04                           (NR   MIcro)
   32     dE    -2.323245e-06     9.312248e-05                           (NR   MIcro)
   32     dE    -2.328329e-06     2.528450e-05                           (NR   MIcro)
   32     dE    -2.328806e-06     1.585766e-05                           (NR   MIcro)
   32     dE    -2.328985e-06     1.718516e-05                           (NR   MIcro)
   32     dE    -2.328987e-06     1.691405e-05                           (NR   MIcro)
   32     dE    -2.328989e-06     1.730977e-05                           (NR   MIcro)
   32     dE    -2.328997e-06     1.792381e-05                           (NR   MIcro)
   33       -344.348769388892     1.864027e-03                     1.720 (TRAH MAcro)   No
   33     dE    -1.018209e-06     1.569237e-03    -1.0182e-06      0.001 (TRAH MIcro)
   33     dE    -1.493684e-06     5.215918e-04    -1.4937e-06      0.001 (TRAH MIcro)
   33     dE    -2.427838e-06     1.596618e-03    -2.4276e-06      0.009 (TRAH MIcro)
   33     dE    -4.510122e-06     2.995207e-03    -4.5066e-06      0.028 (TRAH MIcro)
   33     dE    -6.955660e-06     1.454933e-03    -6.9377e-06      0.051 (TRAH MIcro)
   33     dE    -7.803932e-06     4.606171e-04    -7.7771e-06      0.059 (TRAH MIcro)
   33     dE    -7.990656e-06     3.546322e-04    -7.9615e-06      0.060 (TRAH MIcro)
   33     dE    -8.056855e-06     1.639118e-04    -8.0269e-06      0.061 (TRAH MIcro)
   34       -344.348780118603     4.680612e-04                           (NR   MAcro)
   34     dE    -9.375102e-08     2.025316e-04                           (NR   MIcro)
   34     dE    -1.277269e-07     1.456617e-04                           (NR   MIcro)
   34     dE    -1.907876e-07     3.050471e-04                           (NR   MIcro)
   34     dE    -4.357525e-07     5.158010e-04                           (NR   MIcro)
   34     dE    -9.231555e-07     6.387831e-04                           (NR   MIcro)
   34     dE    -1.470433e-06     7.294179e-04                           (NR   MIcro)
   34     dE    -2.246355e-06     6.278087e-04                           (NR   MIcro)
   34     dE    -2.501110e-06     3.429568e-04                           (NR   MIcro)
   34     dE    -2.570287e-06     8.424973e-05                           (NR   MIcro)
   34     dE    -2.573648e-06     2.704830e-05                           (NR   MIcro)
   34     dE    -2.574027e-06     9.803186e-06                           (NR   MIcro)
   34     dE    -2.574043e-06     6.587510e-06                           (NR   MIcro)
   34     dE    -2.574045e-06     6.202170e-06                           (NR   MIcro)
   34     dE    -2.574050e-06     6.340173e-06                           (NR   MIcro)
   34     dE    -2.574057e-06     6.814175e-06                           (NR   MIcro)
   35       -344.348782144927     3.327033e-04                           (NR   MAcro)
   35     dE    -4.429865e-08     3.066623e-05                           (NR   MIcro)
   35     dE    -4.573404e-08     3.565550e-05                           (NR   MIcro)
   35     dE    -4.853433e-08     6.632993e-05                           (NR   MIcro)
   35     dE    -5.656537e-08     1.178794e-04                           (NR   MIcro)
   35     dE    -1.033554e-07     1.816910e-04                           (NR   MIcro)
   35     dE    -1.779886e-07     2.812304e-04                           (NR   MIcro)
   35     dE    -2.885798e-07     3.281477e-04                           (NR   MIcro)
   35     dE    -3.824711e-07     1.877852e-04                           (NR   MIcro)
   35     dE    -4.013658e-07     9.109540e-05                           (NR   MIcro)
   35     dE    -4.062884e-07     2.468795e-05                           (NR   MIcro)
   35     dE    -4.067828e-07     1.386046e-05                           (NR   MIcro)
   35     dE    -4.071164e-07     1.577012e-05                           (NR   MIcro)
   35     dE    -4.072557e-07     1.132900e-05                           (NR   MIcro)
   35     dE    -4.072930e-07     6.232825e-06                           (NR   MIcro)
   35     dE    -4.072965e-07     5.964756e-06                           (NR   MIcro)
   36       -344.348781414252     1.949672e-04                           (NR   MAcro)
   36     dE    -2.666412e-08     8.571519e-05                           (NR   MIcro)
   36     dE    -1.421886e-07     4.357955e-04                           (NR   MIcro)
   36     dE    -4.456652e-07     6.554932e-04                           (NR   MIcro)
[...]
      dz2     :    -0.000002  d :     0.000002
      dxz     :    -0.000010
      dyz     :     0.000016
      dx2y2   :     0.000001
      dxy     :    -0.000003
  3 C s       :     0.000516  s :     0.000516
      pz      :    -0.000021  p :     0.000005
      px      :     0.000057
      py      :    -0.000032
      dz2     :     0.000000  d :     0.000003
      dxz     :     0.000001
      dyz     :     0.000001
      dx2y2   :     0.000000
      dxy     :     0.000001
  4 C s       :     0.000052  s :     0.000052
      pz      :     0.000172  p :     0.000374
      px      :     0.000104
      py      :     0.000098
      dz2     :    -0.000000  d :    -0.000003
      dxz     :    -0.000001
      dyz     :    -0.000000
      dx2y2   :    -0.000002
      dxy     :    -0.000000
  5 C s       :    -0.000077  s :    -0.000077
      pz      :    -0.000173  p :    -0.000420
      px      :    -0.000100
      py      :    -0.000147
      dz2     :     0.000001  d :     0.000002
      dxz     :    -0.000000
      dyz     :     0.000000
      dx2y2   :     0.000000
      dxy     :     0.000000
  6 C s       :     0.000052  s :     0.000052
      pz      :     0.000034  p :     0.000165
      px      :     0.000089
      py      :     0.000042
      dz2     :    -0.000001  d :    -0.000002
      dxz     :    -0.000001
      dyz     :     0.000001
      dx2y2   :    -0.000000
      dxy     :    -0.000000
  7 H s       :    -0.030805  s :    -0.030805
      pz      :     0.002298  p :     0.006399
      px      :     0.002321
      py      :     0.001780
  8 H s       :    -0.000118  s :    -0.000118
      pz      :     0.000001  p :     0.000009
      px      :     0.000008
      py      :    -0.000000
  9 H s       :     0.000656  s :     0.000656
      pz      :     0.000004  p :     0.000002
      px      :    -0.000003
      py      :     0.000001
 10 H s       :    -0.000011  s :    -0.000011
      pz      :     0.000000  p :    -0.000000
      px      :    -0.000000
      py      :    -0.000000
 11 H s       :     0.000019  s :     0.000019
      pz      :    -0.000003  p :    -0.000003
      px      :     0.000000
      py      :    -0.000000
 12 H s       :     0.000016  s :     0.000016
      pz      :     0.000000  p :    -0.000000
      px      :    -0.000001
      py      :     0.000000
 13 H s       :    -0.000008  s :    -0.000008
      pz      :     0.000001  p :     0.000001
      px      :    -0.000000
      py      :     0.000000


                     *******************************
                     * LOEWDIN POPULATION ANALYSIS *
                     *******************************

-------------------------------------------
LOEWDIN ATOMIC CHARGES AND SPIN POPULATIONS
-------------------------------------------
   0 O :   -0.101920    0.996557
   1 O :   -0.212131   -0.002514
   2 C :    0.075544    0.000043
   3 C :    0.077487    0.000318
   4 C :   -0.047788    0.000297
   5 C :    0.049266   -0.000322
   6 C :   -0.043619    0.000126
   7 H :    0.018502    0.005080
   8 H :    0.032976    0.000037
   9 H :    0.034820    0.000404
  10 H :    0.033533   -0.000003
  11 H :   -0.012313   -0.000014
  12 H :    0.049182   -0.000006
  13 H :    0.046461   -0.000003

----------------------------------------------------
LOEWDIN REDUCED ORBITAL CHARGES AND SPIN POPULATIONS
----------------------------------------------------
CHARGE
  0 O s       :     3.688173  s :     3.688173
      pz      :     1.549785  p :     4.403883
      px      :     1.335140
      py      :     1.518958
      dz2     :     0.001432  d :     0.009864
      dxz     :     0.001536
      dyz     :     0.000732
      dx2y2   :     0.000752
      dxy     :     0.005412
  1 O s       :     3.605006  s :     3.605006
      pz      :     1.409546  p :     4.581186
      px      :     1.673845
      py      :     1.497795
      dz2     :     0.007041  d :     0.025939
      dxz     :     0.003158
      dyz     :     0.007936
      dx2y2   :     0.003567
      dxy     :     0.004236
  2 C s       :     2.868813  s :     2.868813
      pz      :     0.859598  p :     2.909099
      px      :     1.056100
      py      :     0.993401
      dz2     :     0.038897  d :     0.146544
      dxz     :     0.034759
      dyz     :     0.036703
      dx2y2   :     0.016514
      dxy     :     0.019672
  3 C s       :     2.874602  s :     2.874602
      pz      :     1.007298  p :     2.908594
      px      :     1.007675
      py      :     0.893620
      dz2     :     0.016043  d :     0.139317
      dxz     :     0.025293
      dyz     :     0.026980
      dx2y2   :     0.035456
      dxy     :     0.035545
  4 C s       :     2.891139  s :     2.891139
      pz      :     1.020357  p :     3.075387
      px      :     1.024238
      py      :     1.030792
      dz2     :     0.010530  d :     0.081262
      dxz     :     0.019257
      dyz     :     0.012062
      dx2y2   :     0.022495
      dxy     :     0.016917
  5 C s       :     2.870151  s :     2.870151
      pz      :     0.973790  p :     3.001350
      px      :     0.998521
      py      :     1.029039
      dz2     :     0.013319  d :     0.079234
      dxz     :     0.012283
      dyz     :     0.013017
      dx2y2   :     0.018849
      dxy     :     0.021766
  6 C s       :     2.849611  s :     2.849611
      pz      :     1.040178  p :     3.108048
      px      :     1.008101
      py      :     1.059768
      dz2     :     0.018146  d :     0.085960
      dxz     :     0.019342
      dyz     :     0.013972
      dx2y2   :     0.018422
      dxy     :     0.016078
  7 H s       :     0.763329  s :     0.763329
      pz      :     0.052809  p :     0.218169
      px      :     0.098828
      py      :     0.066532
  8 H s       :     0.895613  s :     0.895613
      pz      :     0.010817  p :     0.071411
      px      :     0.044676
      py      :     0.015918
  9 H s       :     0.893935  s :     0.893935
      pz      :     0.024041  p :     0.071245
      px      :     0.015198
      py      :     0.032006
 10 H s       :     0.894101  s :     0.894101
      pz      :     0.022332  p :     0.072366
      px      :     0.034673
      py      :     0.015361
 11 H s       :     0.910541  s :     0.910541
      pz      :     0.025724  p :     0.101772
      px      :     0.038431
      py      :     0.037616
 12 H s       :     0.882621  s :     0.882621
      pz      :     0.037182  p :     0.068197
      px      :     0.014303
      py      :     0.016712
 13 H s       :     0.885710  s :     0.885710
      pz      :     0.012840  p :     0.067829
      px      :     0.016949
      py      :     0.038040

SPIN
  0 O s       :     0.009990  s :     0.009990
      pz      :     0.361712  p :     0.986302
      px      :     0.344412
      py      :     0.280177
      dz2     :    -0.000020  d :     0.000266
      dxz     :     0.000149
      dyz     :     0.000038
      dx2y2   :     0.000059
      dxy     :     0.000039
  1 O s       :    -0.000547  s :    -0.000547
      pz      :    -0.000288  p :    -0.001952
      px      :    -0.001338
      py      :    -0.000326
      dz2     :     0.000008  d :    -0.000016
      dxz     :    -0.000018
      dyz     :    -0.000000
      dx2y2   :    -0.000008
      dxy     :     0.000003
  2 C s       :    -0.000007  s :    -0.000007
      pz      :    -0.000026  p :     0.000073
      px      :     0.000127
      py      :    -0.000028
      dz2     :    -0.000019  d :    -0.000023
      dxz     :    -0.000018
      dyz     :     0.000023
      dx2y2   :    -0.000002
      dxy     :    -0.000007
  3 C s       :     0.000053  s :     0.000053
      pz      :     0.000172  p :     0.000268
      px      :     0.000086
      py      :     0.000010
      dz2     :     0.000001  d :    -0.000003
      dxz     :    -0.000004
      dyz     :    -0.000002
      dx2y2   :     0.000002
      dxy     :    -0.000001
  4 C s       :     0.000036  s :     0.000036
      pz      :     0.000098  p :     0.000271
      px      :     0.000088
      py      :     0.000085
      dz2     :    -0.000001  d :    -0.000010
      dxz     :    -0.000001
      dyz     :     0.000000
      dx2y2   :    -0.000005
      dxy     :    -0.000002
  5 C s       :    -0.000028  s :    -0.000028
      pz      :    -0.000172  p :    -0.000296
      px      :    -0.000068
      py      :    -0.000056
      dz2     :     0.000001  d :     0.000002
      dxz     :    -0.000001
      dyz     :     0.000001
      dx2y2   :     0.000002
      dxy     :    -0.000001
  6 C s       :     0.000023  s :     0.000023
      pz      :     0.000052  p :     0.000116
      px      :     0.000038
      py      :     0.000026
      dz2     :    -0.000007  d :    -0.000013
      dxz     :    -0.000004
      dyz     :     0.000002
      dx2y2   :    -0.000001
      dxy     :    -0.000003
  7 H s       :    -0.019907  s :    -0.019907
      pz      :     0.008139  p :     0.024987
      px      :     0.009773
      py      :     0.007074
  8 H s       :     0.000036  s :     0.000036
      pz      :    -0.000004  p :     0.000001
      px      :     0.000010
      py      :    -0.000005
  9 H s       :     0.000367  s :     0.000367
      pz      :     0.000014  p :     0.000038
      px      :     0.000007
      py      :     0.000017
 10 H s       :    -0.000011  s :    -0.000011
      pz      :     0.000003  p :     0.000008
      px      :     0.000003
      py      :     0.000002
 11 H s       :     0.000002  s :     0.000002
      pz      :    -0.000009  p :    -0.000017
      px      :    -0.000005
      py      :    -0.000003
 12 H s       :    -0.000007  s :    -0.000007
      pz      :    -0.000000  p :     0.000000
      px      :     0.000000
      py      :     0.000000
 13 H s       :    -0.000006  s :    -0.000006
      pz      :     0.000000  p :     0.000004
      px      :     0.000002
      py      :     0.000002


                      *****************************
                      * MAYER POPULATION ANALYSIS *
                      *****************************

  NA   - Mulliken gross atomic population
  ZA   - Total nuclear charge
  QA   - Mulliken gross atomic charge
  VA   - Mayer's total valence
  BVA  - Mayer's bonded valence
  FA   - Mayer's free valence

  ATOM       NA         ZA         QA         VA         BVA        FA
  0 O      8.2425     8.0000    -0.2425     1.9710     0.9910     0.9800
  1 O      8.3978     8.0000    -0.3978     1.9521     1.9521     0.0000
  2 C      5.9887     6.0000     0.0113     3.9565     3.9565    -0.0000
  3 C      5.9207     6.0000     0.0793     3.8830     3.8830     0.0000
  4 C      5.9729     6.0000     0.0271     3.7573     3.7573     0.0000
  5 C      6.0342     6.0000    -0.0342     3.9724     3.9724     0.0000
  6 C      5.9334     6.0000     0.0666     3.8101     3.8101     0.0000
  7 H      0.8033     1.0000     0.1967     1.0528     1.0518     0.0011
  8 H      0.9302     1.0000     0.0698     1.0036     1.0036     0.0000
  9 H      0.9345     1.0000     0.0655     0.9994     0.9994     0.0000
 10 H      0.9545     1.0000     0.0455     0.9889     0.9889     0.0000
 11 H      1.0367     1.0000    -0.0367     1.0068     1.0068     0.0000
 12 H      0.9209     1.0000     0.0791     0.9775     0.9775     0.0000
 13 H      0.9297     1.0000     0.0703     0.9814     0.9814     0.0000

  Mayer bond orders larger than 0.100000
B(  0-O ,  7-H ) :   0.9235 B(  1-O ,  2-C ) :   0.9042 B(  1-O ,  3-C ) :   0.8652 
B(  1-O ,  7-H ) :   0.1214 B(  2-C ,  3-C ) :   1.0079 B(  2-C ,  6-C ) :   1.0091 
B(  2-C ,  8-H ) :   0.9623 B(  3-C ,  4-C ) :   1.0000 B(  3-C ,  9-H ) :   0.9747 
B(  4-C ,  5-C ) :   1.8012 B(  4-C , 10-H ) :   0.9931 B(  5-C ,  6-C ) :   1.0023 
B(  5-C , 11-H ) :   1.0044 B(  6-C , 12-H ) :   0.9293 B(  6-C , 13-H ) :   0.9325 



------------------
HIRSHFELD ANALYSIS
------------------

Total integrated alpha density =     27.000005944
Total integrated beta density  =     26.000008742

  ATOM     CHARGE      SPIN    
   0 O   -0.219039    0.960946
   1 O   -0.176443   -0.001952
   2 C    0.056981    0.000451
   3 C    0.050689    0.000655
   4 C   -0.043920    0.000221
   5 C   -0.007700   -0.000268
   6 C   -0.037009    0.000077
   7 H    0.101650    0.038039
   8 H    0.054164    0.000782
   9 H    0.056693    0.001078
  10 H    0.043840    0.000008
  11 H    0.039069   -0.000029
  12 H    0.040369   -0.000009
  13 H    0.040640   -0.000003

  TOTAL  -0.000015    0.999997

-------
TIMINGS
-------

Total SCF time: 0 days 0 hours 14 min 23 sec 

Total time                  ....     863.126 sec
Sum of individual times     ....     861.903 sec  ( 99.9%)

Fock matrix formation       ....     859.306 sec  ( 99.6%)
  Split-RI-J                ....     127.681 sec  ( 14.9% of F)
  Chain of spheres X        ....     577.452 sec  ( 67.2% of F)
  XC integration            ....     154.140 sec  ( 17.9% of F)
    Basis function eval.    ....      36.020 sec  ( 23.4% of XC)
    Density eval.           ....      41.096 sec  ( 26.7% of XC)
    XC-Functional eval.     ....       5.598 sec  (  3.6% of XC)
    XC-Potential eval.      ....      65.017 sec  ( 42.2% of XC)
Diagonalization             ....       0.114 sec  (  0.0%)
Density matrix formation    ....       0.072 sec  (  0.0%)
Population analysis         ....       0.319 sec  (  0.0%)
Initial guess               ....       0.209 sec  (  0.0%)
Orbital Transformation      ....       0.733 sec  (  0.1%)
Orbital Orthonormalization  ....       0.000 sec  (  0.0%)
DIIS solution               ....       0.030 sec  (  0.0%)
Grid generation             ....       1.121 sec  (  0.1%)

Maximum memory used throughout the entire SCF-calculation: 63.2 MB


-------------------------------------------------------------------------------
                          DFT DISPERSION CORRECTION                            
                                                                               
                              DFTD3 V3.1  Rev 1                                
                          USING Becke-Johnson damping                          
-------------------------------------------------------------------------------
The PBE0 functional is recognized
Active option DFTDOPT                   ...         4   

molecular C6(AA) [au] = 1746.223717 


            DFT-D V3
 parameters
 s6 scaling factor         :     1.0000 
 a1 scaling factor         :     0.4145 
 s8 scaling factor         :     1.2177 
 a2 scaling factor         :     4.8593 
 ad hoc parameters k1-k3   :    16.0000     1.3333    -4.0000 

 Edisp/kcal,au: -6.083666693657  -0.009694938955 
 E6   /kcal   :  -3.872328274 
 E8   /kcal   :  -2.211338419 
 % E8         :  36.348776662 

-------------------------   ----------------
Dispersion correction           -0.009694939
-------------------------   ----------------


-------------------------   --------------------
FINAL SINGLE POINT ENERGY      -344.358474887304
-------------------------   --------------------

------------------------------------------------------------------------------
                         ORCA SCF GRADIENT CALCULATION
------------------------------------------------------------------------------

 ... reading COSX grid (gridx3)
Gradient of the Kohn-Sham DFT energy:
Kohn-Sham wavefunction type      ... UKS
Hartree-Fock exchange scaling    ...    0.250
Number of operators              ...    2
Number of atoms                  ...   14
Basis set dimensions             ...  133
Integral neglect threshold       ... 2.5e-11
Integral primitive cutoff        ... 2.5e-12
SHARK Integral package           ... ON

Nuc. rep. gradient       (SHARK) ... done (  0.0 sec)
HCore & Overlap gradient (SHARK) ... done (  0.1 sec)
RI-J gradient            (SHARK) ... done (  0.5 sec)
COSX-gradient                    ... done (  6.1 sec)
Exchange-correlation gradient    ... done
Dispersion correction            ... done

------------------
CARTESIAN GRADIENT
------------------

   1   O   :    0.008279290   -0.005287527   -0.003251259
   2   O   :   -0.000930484   -0.031060640    0.023682724
   3   C   :   -0.002900985    0.008826308   -0.037244164
   4   C   :    0.016917377    0.025913411   -0.004959860
   5   C   :   -0.007106729    0.060724454    0.032275721
   6   C   :    0.137358198   -0.168249456   -0.034879674
   7   C   :   -0.033037306    0.015132511   -0.009202132
   8   H   :   -0.005335563    0.002386343    0.002865084
   9   H   :   -0.004114008   -0.004014942    0.006506405
  10   H   :   -0.003959447   -0.003958868    0.004394510
  11   H   :    0.001085941   -0.002918822   -0.004875236
  12   H   :   -0.112830148    0.104615762    0.022627253
  13   H   :    0.008156697   -0.002517740    0.001115774
  14   H   :   -0.001681593    0.000422330    0.000900772

Difference to translation invariance:
           :   -0.0000987607    0.0000131236   -0.0000440805

Difference to rotation invariance:
           :   -0.0001033133   -0.0003679821    0.0002481589

Norm of the cartesian gradient     ...    0.2883275884
RMS gradient                       ...    0.0444899128
MAX gradient                       ...    0.1682494564

-------
TIMINGS
-------

Total SCF gradient time            ...       10.276 sec

One electron gradient       ....       0.088 sec  (  0.9%)
RI-J Coulomb gradient       ....       0.539 sec  (  5.2%)
COSX gradient               ....       6.135 sec  ( 59.7%)
XC gradient                 ....       3.240 sec  ( 31.5%)

Maximum memory used throughout the entire SCFGRAD-calculation: 50.0 MB

                            ***************************************
                            *     ORCA property calculations      *
                            ***************************************

                                    ---------------------
                                    Active property flags
                                    ---------------------
   (+) Dipole Moment


------------------------------------------------------------------------------
                       ORCA ELECTRIC PROPERTIES CALCULATION
------------------------------------------------------------------------------

Dipole Moment Calculation                       ... on
Quadrupole Moment Calculation                   ... off
Polarizability Calculation                      ... off
GBWName                                         ... 23_1_orca.gbw
Electron density                                ... 23_1_orca.scfp
The origin for moment calculation is the CENTER OF MASS  = (-0.392941,  0.082602  0.523355)

-------------
DIPOLE MOMENT
-------------
                                X             Y             Z
Electronic contribution:     -0.94803       0.55660       2.00331
Nuclear contribution   :      1.96396      -0.59965      -3.08470
                        -----------------------------------------
Total Dipole Moment    :      1.01592      -0.04304      -1.08139
                        -----------------------------------------
Magnitude (a.u.)       :      1.48437
Magnitude (Debye)      :      3.77297



--------------------
Rotational spectrum 
--------------------
 
Rotational constants in cm-1:     0.200426     0.056164     0.049150 
Rotational constants in MHz :  6008.632856  1683.749080  1473.479205 

 Dipole components along the rotational axes: 
x,y,z [a.u.] :     1.439943     0.148201    -0.328573 
x,y,z [Debye]:     3.660044     0.376696    -0.835166 

 

Timings for individual modules:

Sum of individual times         ...      873.607 sec (=  14.560 min)
GTO integral calculation        ...        0.156 sec (=   0.003 min)   0.0 %
SCF iterations                  ...      863.148 sec (=  14.386 min)  98.8 %
SCF Gradient evaluation         ...       10.303 sec (=   0.172 min)   1.2 %
                             ****ORCA TERMINATED NORMALLY****
TOTAL RUN TIME: 0 days 0 hours 14 minutes 33 seconds 753 msec
