
                                 *****************
                                 * O   R   C   A *
                                 *****************

                                            #,                                       
                                            ###                                      
                                            ####                                     
                                            #####                                    
                                            ######                                   
                                           ########,                                 
                                     ,,################,,,,,                         
                               ,,#################################,,                 
                          ,,##########################################,,             
                       ,#########################################, ''#####,          
                    ,#############################################,,   '####,        
                  ,##################################################,,,,####,       
                ,###########''''           ''''###############################       
              ,#####''   ,,,,##########,,,,          '''####'''          '####       
            ,##' ,,,,###########################,,,                        '##       
           ' ,,###''''                  '''############,,,                           
         ,,##''                                '''############,,,,        ,,,,,,###''
      ,#''                                            '''#######################'''  
     '                                                          ''''####''''         
             ,#######,   #######,   ,#######,      ##                                
            ,#'     '#,  ##    ##  ,#'     '#,    #''#        ######   ,####,        
            ##       ##  ##   ,#'  ##            #'  '#       #        #'  '#        
            ##       ##  #######   ##           ,######,      #####,   #    #        
            '#,     ,#'  ##    ##  '#,     ,#' ,#      #,         ##   #,  ,#        
             '#######'   ##     ##  '#######'  #'      '#     #####' # '####'        



                  #######################################################
                  #                        -***-                        #
                  #          Department of theory and spectroscopy      #
                  #    Directorship and core code : Frank Neese         #
                  #        Max Planck Institute fuer Kohlenforschung    #
                  #                Kaiser Wilhelm Platz 1               #
                  #                 D-45470 Muelheim/Ruhr               #
                  #                      Germany                        #
                  #                                                     #
                  #                  All rights reserved                #
                  #                        -***-                        #
                  #######################################################


                         Program Version 5.0.4 -  RELEASE  -


 With contributions from (in alphabetic order):
   Daniel Aravena         : Magnetic Suceptibility
   Michael Atanasov       : Ab Initio Ligand Field Theory (pilot matlab implementation)
   Alexander A. Auer      : GIAO ZORA, VPT2 properties, NMR spectrum
   Ute Becker             : Parallelization
   Giovanni Bistoni       : ED, misc. LED, open-shell LED, HFLD
   Martin Brehm           : Molecular dynamics
   Dmytro Bykov           : SCF Hessian
   Vijay G. Chilkuri      : MRCI spin determinant printing, contributions to CSF-ICE
   Dipayan Datta          : RHF DLPNO-CCSD density
   Achintya Kumar Dutta   : EOM-CC, STEOM-CC
   Dmitry Ganyushin       : Spin-Orbit,Spin-Spin,Magnetic field MRCI
   Miquel Garcia          : C-PCM and meta-GGA Hessian, CC/C-PCM, Gaussian charge scheme
   Yang Guo               : DLPNO-NEVPT2, F12-NEVPT2, CIM, IAO-localization
   Andreas Hansen         : Spin unrestricted coupled pair/coupled cluster methods
   Benjamin Helmich-Paris : MC-RPA, TRAH-SCF, COSX integrals
   Lee Huntington         : MR-EOM, pCC
   Robert Izsak           : Overlap fitted RIJCOSX, COSX-SCS-MP3, EOM
   Marcus Kettner         : VPT2
   Christian Kollmar      : KDIIS, OOCD, Brueckner-CCSD(T), CCSD density, CASPT2, CASPT2-K
   Simone Kossmann        : Meta GGA functionals, TD-DFT gradient, OOMP2, MP2 Hessian
   Martin Krupicka        : Initial AUTO-CI
   Lucas Lang             : DCDCAS
   Marvin Lechner         : AUTO-CI (C++ implementation), FIC-MRCC
   Dagmar Lenk            : GEPOL surface, SMD
   Dimitrios Liakos       : Extrapolation schemes; Compound Job, initial MDCI parallelization
   Dimitrios Manganas     : Further ROCIS development; embedding schemes
   Dimitrios Pantazis     : SARC Basis sets
   Anastasios Papadopoulos: AUTO-CI, single reference methods and gradients
   Taras Petrenko         : DFT Hessian,TD-DFT gradient, ASA, ECA, R-Raman, ABS, FL, XAS/XES, NRVS
   Peter Pinski           : DLPNO-MP2, DLPNO-MP2 Gradient
   Christoph Reimann      : Effective Core Potentials
   Marius Retegan         : Local ZFS, SOC
   Christoph Riplinger    : Optimizer, TS searches, QM/MM, DLPNO-CCSD(T), (RO)-DLPNO pert. Triples
   Tobias Risthaus        : Range-separated hybrids, TD-DFT gradient, RPA, STAB
   Michael Roemelt        : Original ROCIS implementation
   Masaaki Saitow         : Open-shell DLPNO-CCSD energy and density
   Barbara Sandhoefer     : DKH picture change effects
   Avijit Sen             : IP-ROCIS
   Kantharuban Sivalingam : CASSCF convergence, NEVPT2, FIC-MRCI
   Bernardo de Souza      : ESD, SOC TD-DFT
   Georgi Stoychev        : AutoAux, RI-MP2 NMR, DLPNO-MP2 response
   Willem Van den Heuvel  : Paramagnetic NMR
   Boris Wezisla          : Elementary symmetry handling
   Frank Wennmohs         : Technical directorship


 We gratefully acknowledge several colleagues who have allowed us to
 interface, adapt or use parts of their codes:
   Stefan Grimme, W. Hujo, H. Kruse, P. Pracht,  : VdW corrections, initial TS optimization,
                  C. Bannwarth, S. Ehlert          DFT functionals, gCP, sTDA/sTD-DF
   Ed Valeev, F. Pavosevic, A. Kumar             : LibInt (2-el integral package), F12 methods
   Garnet Chan, S. Sharma, J. Yang, R. Olivares  : DMRG
   Ulf Ekstrom                                   : XCFun DFT Library
   Mihaly Kallay                                 : mrcc  (arbitrary order and MRCC methods)
   Jiri Pittner, Ondrej Demel                    : Mk-CCSD
   Frank Weinhold                                : gennbo (NPA and NBO analysis)
   Christopher J. Cramer and Donald G. Truhlar   : smd solvation model
   Lars Goerigk                                  : TD-DFT with DH, B97 family of functionals
   V. Asgeirsson, H. Jonsson                     : NEB implementation
   FAccTs GmbH                                   : IRC, NEB, NEB-TS, DLPNO-Multilevel, CI-OPT
                                                   MM, QMMM, 2- and 3-layer-ONIOM, Crystal-QMMM,
                                                   LR-CPCM, SF, NACMEs, symmetry and pop. for TD-DFT,
                                                   nearIR, NL-DFT gradient (VV10), updates on ESD,
                                                   ML-optimized integration grids
   S Lehtola, MJT Oliveira, MAL Marques          : LibXC Library
   Liviu Ungur et al                             : ANISO software


 Your calculation uses the libint2 library for the computation of 2-el integrals
 For citations please refer to: http://libint.valeyev.net

 Your ORCA version has been built with support for libXC version: 5.1.0
 For citations please refer to: https://tddft.org/programs/libxc/

 This ORCA versions uses:
   CBLAS   interface :  Fast vector & matrix operations
   LAPACKE interface :  Fast linear algebra routines
   SCALAPACK package :  Parallel linear algebra routines
   Shared memory     :  Shared parallel matrices
   BLAS/LAPACK       :  OpenBLAS 0.3.15  USE64BITINT DYNAMIC_ARCH NO_AFFINITY SkylakeX SINGLE_THREADED
        Core in use  :  SkylakeX
   Copyright (c) 2011-2014, The OpenBLAS Project


Your calculation utilizes the atom-pairwise dispersion correction
with the Becke-Johnson damping scheme (D3BJ)
Cite in your paper:
S.Grimme, S.Ehrlich, L.Goerigk, J Comput Chem, (2011), 32, 1456–1465 
S.Grimme, J.Antony, S.Ehrlich and H.Krieg, J.Chem.Phys., 132, (2010), 154104 
   

================================================================================

----- Orbital basis set information -----
Your calculation utilizes the basis: def2-SVP
   F. Weigend and R. Ahlrichs, Phys. Chem. Chem. Phys. 7, 3297 (2005).

----- AuxJ basis set information -----
Your calculation utilizes the auxiliary basis: def2/J
   F. Weigend, Phys. Chem. Chem. Phys. 8, 1057 (2006).

================================================================================
                                        WARNINGS
                       Please study these warnings very carefully!
================================================================================


WARNING: your system is open-shell and RHF/RKS was chosen
  ===> : WILL SWITCH to UHF/UKS


INFO   : the flag for use of the SHARK integral package has been found!

================================================================================
                                       INPUT FILE
================================================================================
NAME = 16_0_orca.inp
|  1> ! EnGrad PBE0 RIJCOSX D3BJ def2-SVP def2/J 
|  2> %output 
|  3> xyzfile=True 
|  4> end 
|  5> %scf 
|  6> maxiter 250 
|  7> end
|  8> %output
|  9> Print[P_Hirshfeld] = 1
| 10> end
| 11> % maxcore
| 12> 4000
| 13> *xyz 0 2
| 14> O   -2.45904451   0.07451510   1.55079977 
| 15> O   -0.53773821  -0.30100126   0.83921307 
| 16> C   -0.72933499   0.21161368  -0.44956484 
| 17> C    0.15105134   0.90423217   0.52236619 
| 18> C    1.52352217   0.43558197   0.27037540 
| 19> C    1.37121589  -0.61969740  -0.53164472 
| 20> C    0.10570341  -0.66196657  -1.32536638 
| 21> H   -2.08023587   0.13522306   2.43586844 
| 22> H   -1.72836765   0.57455436  -0.70455185 
| 23> H   -0.15542611   1.78970954   1.08308956 
| 24> H    2.41632792   0.71631215   0.82728671 
| 25> H    2.18807453  -1.30985957  -0.76784025 
| 26> H    0.27032735  -0.28101568  -2.34772871 
| 27> H   -0.33607528  -1.66810546  -1.40230629 
| 28> *
| 29> 
| 30>                          ****END OF INPUT****
================================================================================

                     *******************************
                     * Energy+Gradient Calculation *
                     *******************************

---------------------------------
CARTESIAN COORDINATES (ANGSTROEM)
---------------------------------
  O     -2.459045    0.074515    1.550800
  O     -0.537738   -0.301001    0.839213
  C     -0.729335    0.211614   -0.449565
  C      0.151051    0.904232    0.522366
  C      1.523522    0.435582    0.270375
  C      1.371216   -0.619697   -0.531645
  C      0.105703   -0.661967   -1.325366
  H     -2.080236    0.135223    2.435868
  H     -1.728368    0.574554   -0.704552
  H     -0.155426    1.789710    1.083090
  H      2.416328    0.716312    0.827287
  H      2.188075   -1.309860   -0.767840
  H      0.270327   -0.281016   -2.347729
  H     -0.336075   -1.668105   -1.402306

----------------------------
CARTESIAN COORDINATES (A.U.)
----------------------------
  NO LB      ZA    FRAG     MASS         X           Y           Z
   0 O     8.0000    0    15.999   -4.646921    0.140813    2.930587
   1 O     8.0000    0    15.999   -1.016178   -0.568810    1.585883
   2 C     6.0000    0    12.011   -1.378243    0.399892   -0.849554
   3 C     6.0000    0    12.011    0.285446    1.708751    0.987129
   4 C     6.0000    0    12.011    2.879040    0.823131    0.510935
   5 C     6.0000    0    12.011    2.591223   -1.171058   -1.004663
   6 C     6.0000    0    12.011    0.199750   -1.250936   -2.504579
   7 H     1.0000    0     1.008   -3.931076    0.255535    4.603124
   8 H     1.0000    0     1.008   -3.266142    1.085750   -1.331410
   9 H     1.0000    0     1.008   -0.293713    3.382061    2.046743
  10 H     1.0000    0     1.008    4.566198    1.353634    1.563345
  11 H     1.0000    0     1.008    4.134862   -2.475276   -1.451008
  12 H     1.0000    0     1.008    0.510845   -0.531043   -4.436564
  13 H     1.0000    0     1.008   -0.635090   -3.152262   -2.649975

--------------------------------
INTERNAL COORDINATES (ANGSTROEM)
--------------------------------
 O      0   0   0     0.000000000000     0.00000000     0.00000000
 O      1   0   0     2.082975291900     0.00000000     0.00000000
 C      2   1   0     1.400154242975    97.02049621     0.00000000
 C      2   1   3     1.423871697290   111.69224092    64.06394157
 C      4   2   1     1.472008338090   102.68784712   170.75105017
 C      5   4   2     1.334184404256   104.37629577    46.91854130
 C      3   2   1     1.492467728338   104.43479828   214.55554456
 H      1   2   3     0.964638788750    87.85495502   207.49305444
 H      3   2   1     1.093073907938   117.47419548   357.29418677
 H      4   2   1     1.091974952920   115.87098064    27.47375844
 H      5   4   2     1.089064620857   126.49472731   241.82278420
 H      6   5   4     1.095157608307   122.88504010   191.11948074
 H      7   3   2     1.103380875317   115.15794718   193.34896822
 H      7   3   2     1.101546016587   110.56238642    70.49252117

---------------------------
INTERNAL COORDINATES (A.U.)
---------------------------
 O      0   0   0     0.000000000000     0.00000000     0.00000000
 O      1   0   0     3.936252845415     0.00000000     0.00000000
 C      2   1   0     2.645908064471    97.02049621     0.00000000
 C      2   1   3     2.690727557720   111.69224092    64.06394157
 C      4   2   1     2.781692625838   102.68784712   170.75105017
 C      5   4   2     2.521243136193   104.37629577    46.91854130
 C      3   2   1     2.820355270275   104.43479828   214.55554456
 H      1   2   3     1.822903128896    87.85495502   207.49305444
 H      3   2   1     2.065610330137   117.47419548   357.29418677
 H      4   2   1     2.063533606120   115.87098064    27.47375844
 H      5   4   2     2.058033875562   126.49472731   241.82278420
 H      6   5   4     2.069547953181   122.88504010   191.11948074
 H      7   3   2     2.085087675756   115.15794718   193.34896822
 H      7   3   2     2.081620295262   110.56238642    70.49252117

---------------------
BASIS SET INFORMATION
---------------------
There are 3 groups of distinct atoms

 Group   1 Type O   : 7s4p1d contracted to 3s2p1d pattern {511/31/1}
 Group   2 Type C   : 7s4p1d contracted to 3s2p1d pattern {511/31/1}
 Group   3 Type H   : 4s1p contracted to 2s1p pattern {31/1}

Atom   0O    basis set group =>   1
Atom   1O    basis set group =>   1
Atom   2C    basis set group =>   2
Atom   3C    basis set group =>   2
Atom   4C    basis set group =>   2
Atom   5C    basis set group =>   2
Atom   6C    basis set group =>   2
Atom   7H    basis set group =>   3
Atom   8H    basis set group =>   3
Atom   9H    basis set group =>   3
Atom  10H    basis set group =>   3
Atom  11H    basis set group =>   3
Atom  12H    basis set group =>   3
Atom  13H    basis set group =>   3
---------------------------------
AUXILIARY/J BASIS SET INFORMATION
---------------------------------
There are 3 groups of distinct atoms

 Group   1 Type O   : 12s5p4d2f1g contracted to 6s4p3d1f1g pattern {711111/2111/211/2/1}
 Group   2 Type C   : 12s5p4d2f1g contracted to 6s4p3d1f1g pattern {711111/2111/211/2/1}
 Group   3 Type H   : 5s2p1d contracted to 3s1p1d pattern {311/2/1}

Atom   0O    basis set group =>   1
Atom   1O    basis set group =>   1
Atom   2C    basis set group =>   2
Atom   3C    basis set group =>   2
Atom   4C    basis set group =>   2
Atom   5C    basis set group =>   2
Atom   6C    basis set group =>   2
Atom   7H    basis set group =>   3
Atom   8H    basis set group =>   3
Atom   9H    basis set group =>   3
Atom  10H    basis set group =>   3
Atom  11H    basis set group =>   3
Atom  12H    basis set group =>   3
Atom  13H    basis set group =>   3
------------------------------------------------------------------------------
                           ORCA GTO INTEGRAL CALCULATION
                           -- RI-GTO INTEGRALS CHOSEN --
------------------------------------------------------------------------------
------------------------------------------------------------------------------
                   ___                                                        
                  /   \      - P O W E R E D   B Y -                         
                 /     \                                                     
                 |  |  |   _    _      __       _____    __    __             
                 |  |  |  | |  | |    /  \     |  _  \  |  |  /  |          
                  \  \/   | |  | |   /    \    | | | |  |  | /  /          
                 / \  \   | |__| |  /  /\  \   | |_| |  |  |/  /          
                |  |  |   |  __  | /  /__\  \  |    /   |      \           
                |  |  |   | |  | | |   __   |  |    \   |  |\   \          
                \     /   | |  | | |  |  |  |  | |\  \  |  | \   \       
                 \___/    |_|  |_| |__|  |__|  |_| \__\ |__|  \__/        
                                                                              
                      - O R C A' S   B I G   F R I E N D -                    
                                      &                                       
                       - I N T E G R A L  F E E D E R -                       
                                                                              
 v1 FN, 2020, v2 2021                                                         
------------------------------------------------------------------------------


Reading SHARK input file 16_0_orca.SHARKINP.tmp ... ok
----------------------
SHARK INTEGRAL PACKAGE
----------------------

Number of atoms                             ...     14
Number of basis functions                   ...    133
Number of shells                            ...     63
Maximum angular momentum                    ...      2
Integral batch strategy                     ... SHARK/LIBINT Hybrid
RI-J (if used) integral strategy            ... SPLIT-RIJ (Revised 2003 algorithm where possible)
Printlevel                                  ...      1
Contraction scheme used                     ... SEGMENTED contraction
Coulomb Range Separation                    ... NOT USED
Exchange Range Separation                   ... NOT USED
Finite Nucleus Model                        ... NOT USED
Auxiliary Coulomb fitting basis             ... AVAILABLE
   # of basis functions in Aux-J            ...    420
   # of shells in Aux-J                     ...    140
   Maximum angular momentum in Aux-J        ...      4
Auxiliary J/K fitting basis                 ... NOT available
Auxiliary Correlation fitting basis         ... NOT available
Auxiliary 'external' fitting basis          ... NOT available
Integral threshold                          ...     2.500000e-11
Primitive cut-off                           ...     2.500000e-12
Primitive pair pre-selection threshold      ...     2.500000e-12

Calculating pre-screening integrals         ... done (  0.0 sec) Dimension = 63
Organizing shell pair data                  ... done (  0.0 sec)
Shell pair information
Total number of shell pairs                 ...      2016
Shell pairs after pre-screening             ...      1951
Total number of primitive shell pairs       ...      7252
Primitive shell pairs kept                  ...      5370
          la=0 lb=0:    606 shell pairs
          la=1 lb=0:    711 shell pairs
          la=1 lb=1:    225 shell pairs
          la=2 lb=0:    238 shell pairs
          la=2 lb=1:    144 shell pairs
          la=2 lb=2:     27 shell pairs

Calculating one electron integrals          ... done (  0.0 sec)
Calculating RI/J V-Matrix + Cholesky decomp.... done (  0.0 sec)
Calculating Nuclear repulsion               ... done (  0.0 sec) ENN=    304.420757493751 Eh

SHARK setup successfully completed in   0.1 seconds

Maximum memory used throughout the entire GTOINT-calculation: 16.9 MB
-------------------------------------------------------------------------------
                                 ORCA SCF
-------------------------------------------------------------------------------

------------
SCF SETTINGS
------------
Hamiltonian:
 Density Functional     Method          .... DFT(GTOs)
 Exchange Functional    Exchange        .... PBE
   PBE kappa parameter   XKappa         ....  0.804000
   PBE mue parameter    XMuePBE         ....  0.219520
 Correlation Functional Correlation     .... PBE
   PBE beta parameter  CBetaPBE         ....  0.066725
 LDA part of GGA corr.  LDAOpt          .... PW91-LDA
 Gradients option       PostSCFGGA      .... off
 Hybrid DFT is turned on
   Fraction HF Exchange ScalHFX         ....  0.250000
   Scaling of DF-GGA-X  ScalDFX         ....  0.750000
   Scaling of DF-GGA-C  ScalDFC         ....  1.000000
   Scaling of DF-LDA-C  ScalLDAC        ....  1.000000
   Perturbative correction              ....  0.000000
   Density functional embedding theory  .... OFF
   NL short-range parameter             ....  6.900000
 RI-approximation to the Coulomb term is turned on
   Number of AuxJ basis functions       .... 420
   RIJ-COSX (HFX calculated with COS-X)).... on


General Settings:
 Integral files         IntName         .... 16_0_orca
 Hartree-Fock type      HFTyp           .... UHF
 Total Charge           Charge          ....    0
 Multiplicity           Mult            ....    2
 Number of Electrons    NEL             ....   53
 Basis Dimension        Dim             ....  133
 Nuclear Repulsion      ENuc            ....    304.4207574938 Eh

Convergence Acceleration:
 DIIS                   CNVDIIS         .... on
   Start iteration      DIISMaxIt       ....    12
   Startup error        DIISStart       ....  0.200000
   # of expansion vecs  DIISMaxEq       ....     5
   Bias factor          DIISBfac        ....   1.050
   Max. coefficient     DIISMaxC        ....  10.000
 Trust-Rad. Augm. Hess. CNVTRAH         .... auto
   Auto Start mean grad. ratio tolernc. ....  1.125000
   Auto Start start iteration           ....    20
   Auto Start num. interpolation iter.  ....    10
   Max. Number of Micro iterations      ....    16
   Max. Number of Macro iterations      .... Maxiter - #DIIS iter
   Number of Davidson start vectors     ....     2
   Converg. threshold I  (grad. norm)   ....   1.000e-05
   Converg. threshold II (energy diff.) ....   1.000e-08
   Grad. Scal. Fac. for Micro threshold ....   0.100
   Minimum threshold for Micro iter.    ....   0.010
   NR start threshold (gradient norm)   ....   0.001
   Initial trust radius                 ....   0.400
   Minimum AH scaling param. (alpha)    ....   1.000
   Maximum AH scaling param. (alpha)    .... 1000.000
   Orbital update algorithm             .... Taylor
   White noise on init. David. guess    .... on
   Maximum white noise                  ....   0.010
   Quad. conv. algorithm                .... NR
 SOSCF                  CNVSOSCF        .... off
 Level Shifting         CNVShift        .... on
   Level shift para.    LevelShift      ....    0.2500
   Turn off err/grad.   ShiftErr        ....    0.0010
 Zerner damping         CNVZerner       .... off
 Static damping         CNVDamp         .... on
   Fraction old density DampFac         ....    0.7000
   Max. Damping (<1)    DampMax         ....    0.9800
   Min. Damping (>=0)   DampMin         ....    0.0000
   Turn off err/grad.   DampErr         ....    0.1000
 Fernandez-Rico         CNVRico         .... off

SCF Procedure:
 Maximum # iterations   MaxIter         ....   250
 SCF integral mode      SCFMode         .... Direct
   Integral package                     .... SHARK and LIBINT hybrid scheme
 Reset frequency        DirectResetFreq ....    20
 Integral Threshold     Thresh          ....  2.500e-11 Eh
 Primitive CutOff       TCut            ....  2.500e-12 Eh

Convergence Tolerance:
 Convergence Check Mode ConvCheckMode   .... Total+1el-Energy
 Convergence forced     ConvForced      .... 0
 Energy Change          TolE            ....  1.000e-08 Eh
 1-El. energy change                    ....  1.000e-05 Eh
 DIIS Error             TolErr          ....  5.000e-07


Diagonalization of the overlap matrix:
Smallest eigenvalue                        ... 6.686e-04
Time for diagonalization                   ...    0.003 sec
Threshold for overlap eigenvalues          ... 1.000e-08
Number of eigenvalues below threshold      ... 0
Time for construction of square roots      ...    0.001 sec
Total time needed                          ...    0.003 sec

Time for model grid setup =    0.119 sec

------------------------------
INITIAL GUESS: MODEL POTENTIAL
------------------------------
Loading Hartree-Fock densities                     ... done
Calculating cut-offs                               ... done
Initializing the effective Hamiltonian             ... done
Setting up the integral package (SHARK)            ... done
Starting the Coulomb interaction                   ... done (   0.1 sec)
Reading the grid                                   ... done
Mapping shells                                     ... done
Starting the XC term evaluation                    ... done (   0.1 sec)
  promolecular density results
     # of electrons  =     52.998233991
     EX              =    -43.913683829
     EC              =     -1.761797311
     EX+EC           =    -45.675481139
Transforming the Hamiltonian                       ... done (   0.0 sec)
Diagonalizing the Hamiltonian                      ... done (   0.0 sec)
Back transforming the eigenvectors                 ... done (   0.0 sec)
Now organizing SCF variables                       ... done
                      ------------------
                      INITIAL GUESS DONE (   0.3 sec)
                      ------------------
-------------------
DFT GRID GENERATION
-------------------

General Integration Accuracy     IntAcc      ... 4.388
Radial Grid Type                 RadialGrid  ... OptM3 with GC (2021)
Angular Grid (max. ang.)         AngularGrid ... 4 (Lebedev-302)
Angular grid pruning method      GridPruning ... 4 (adaptive)
Weight generation scheme         WeightScheme... Becke
Basis function cutoff            BFCut       ... 1.0000e-11
Integration weight cutoff        WCut        ... 1.0000e-14
Angular grids for H and He will be reduced by one unit
Partially contracted basis set               ... off
Rotationally invariant grid construction     ... off

Total number of grid points                  ...    64854
Total number of batches                      ...     1020
Average number of points per batch           ...       63
Average number of grid points per atom       ...     4632
Time for grid setup =    0.488 sec

--------------------
COSX GRID GENERATION
--------------------

GRIDX 1
-------
General Integration Accuracy     IntAcc      ... 3.816
Radial Grid Type                 RadialGrid  ... OptM3 with GC (2021)
Angular Grid (max. ang.)         AngularGrid ... 1 (Lebedev-50)
Angular grid pruning method      GridPruning ... 4 (adaptive)
Weight generation scheme         WeightScheme... Becke
Basis function cutoff            BFCut       ... 1.0000e-11
Integration weight cutoff        WCut        ... 1.0000e-14
Angular grids for H and He will be reduced by one unit
Partially contracted basis set               ... on
Rotationally invariant grid construction     ... off

Total number of grid points                  ...     8298
Total number of batches                      ...      136
Average number of points per batch           ...       61
Average number of grid points per atom       ...      593
UseSFitting                                  ... on

GRIDX 2
-------
General Integration Accuracy     IntAcc      ... 4.020
Radial Grid Type                 RadialGrid  ... OptM3 with GC (2021)
Angular Grid (max. ang.)         AngularGrid ... 2 (Lebedev-110)
Angular grid pruning method      GridPruning ... 4 (adaptive)
Weight generation scheme         WeightScheme... Becke
Basis function cutoff            BFCut       ... 1.0000e-11
Integration weight cutoff        WCut        ... 1.0000e-14
Angular grids for H and He will be reduced by one unit
Partially contracted basis set               ... on
Rotationally invariant grid construction     ... off

Total number of grid points                  ...    18023
Total number of batches                      ...      288
Average number of points per batch           ...       62
Average number of grid points per atom       ...     1287
UseSFitting                                  ... on

GRIDX 3
-------
General Integration Accuracy     IntAcc      ... 4.338
Radial Grid Type                 RadialGrid  ... OptM3 with GC (2021)
Angular Grid (max. ang.)         AngularGrid ... 3 (Lebedev-194)
Angular grid pruning method      GridPruning ... 4 (adaptive)
Weight generation scheme         WeightScheme... Becke
Basis function cutoff            BFCut       ... 1.0000e-11
Integration weight cutoff        WCut        ... 1.0000e-14
Angular grids for H and He will be reduced by one unit
Partially contracted basis set               ... on
Rotationally invariant grid construction     ... off

Total number of grid points                  ...    39612
Total number of batches                      ...      627
Average number of points per batch           ...       63
Average number of grid points per atom       ...     2829
UseSFitting                                  ... on

Time for X-Grid setup             =    0.557 sec

--------------
SCF ITERATIONS
--------------
ITER       Energy         Delta-E        Max-DP      RMS-DP      [F,P]     Damp
               ***  Starting incremental Fock matrix formation  ***
  0   -344.1321773347   0.000000000000 0.06022392  0.00169440  0.1637126 0.7000
  1   -344.2315610919  -0.099383757253 0.04497775  0.00112852  0.0621734 0.7000
                               ***Turning on DIIS***
  2   -344.2716266586  -0.040065566640 0.09298015  0.00181707  0.0221301 0.0000
  3   -344.3422615893  -0.070634930699 0.03515748  0.00105729  0.0589065 0.0000
  4   -344.3577578791  -0.015496289812 0.01612893  0.00044334  0.0096223 0.0000
  5   -344.3591206519  -0.001362772834 0.00960119  0.00025817  0.0082850 0.0000
  6   -344.3598134749  -0.000692822972 0.00490210  0.00013117  0.0039329 0.0000
  7   -344.3600251251  -0.000211650236 0.00188595  0.00005717  0.0021777 0.0000
  8   -344.3600961958  -0.000071070729 0.00165392  0.00004127  0.0012731 0.0000
  9   -344.3601260532  -0.000029857323 0.00190798  0.00005282  0.0006754 0.0000
               *** Restarting incremental Fock matrix formation ***
                                   *** Resetting DIIS ***
 10   -344.3601639917  -0.000037938499 0.00041333  0.00001042  0.0002003 0.0000
 11   -344.3601646455  -0.000000653869 0.00017270  0.00000453  0.0001652 0.0000
 12   -344.3601650716  -0.000000426069 0.00030647  0.00000445  0.0001460 0.0000
 13   -344.3601654347  -0.000000363111 0.00037022  0.00000511  0.0001184 0.0000
 14   -344.3601657622  -0.000000327463 0.00055917  0.00000759  0.0000859 0.0000
 15   -344.3601660550  -0.000000292863 0.00018084  0.00000246  0.0000364 0.0000
 16   -344.3601660972  -0.000000042159 0.00012835  0.00000177  0.0000208 0.0000
 17   -344.3601661141  -0.000000016905 0.00006029  0.00000082  0.0000091 0.0000
 18   -344.3601661203  -0.000000006183 0.00002063  0.00000030  0.0000039 0.0000
                 **** Energy Check signals convergence ****

               *****************************************************
               *                     SUCCESS                       *
               *           SCF CONVERGED AFTER  19 CYCLES          *
               *****************************************************

Old exchange energy                            =    -11.198762534 Eh
New exchange energy                            =    -11.198729978 Eh
Exchange energy change after final integration =      0.000032556 Eh
Total energy after final integration           =   -344.360133564 Eh
Final COS-X integration done in                =     5.214 sec

----------------
TOTAL SCF ENERGY
----------------

Total Energy       :         -344.36013356 Eh           -9370.51562 eV

Components:
Nuclear Repulsion  :          304.42075749 Eh            8283.70995 eV
Electronic Energy  :         -648.78089106 Eh          -17654.22557 eV
One Electron Energy:        -1072.04597014 Eh          -29171.85392 eV
Two Electron Energy:          423.26507908 Eh           11517.62835 eV
Max COSX asymmetry :            0.00000054 Eh               0.00001 eV

Virial components:
Potential Energy   :         -686.16309634 Eh          -18671.44709 eV
Kinetic Energy     :          341.80296278 Eh            9300.93147 eV
Virial Ratio       :            2.00748142


DFT components:
N(Alpha)           :       26.999997940679 electrons
N(Beta)            :       25.999997618563 electrons
N(Total)           :       52.999995559242 electrons
E(X)               :      -33.514247796063 Eh       
E(C)               :       -1.776438805774 Eh       
E(XC)              :      -35.290686601836 Eh       
DFET-embed. en.    :        0.000000000000 Eh       

---------------
SCF CONVERGENCE
---------------

  Last Energy change         ...    3.6283e-10  Tolerance :   1.0000e-08
  Last MAX-Density change    ...    0.0000e+00  Tolerance :   1.0000e-07
  Last RMS-Density change    ...    0.0000e+00  Tolerance :   5.0000e-09
  Last DIIS Error            ...    2.9868e-06  Tolerance :   5.0000e-07

             **** THE GBW FILE WAS UPDATED (16_0_orca.gbw) ****
             **** DENSITY 16_0_orca.scfp WAS UPDATED ****
             **** ENERGY FILE WAS UPDATED (16_0_orca.en.tmp) ****
----------------------
UHF SPIN CONTAMINATION
----------------------

Warning: in a DFT calculation there is little theoretical justification to 
         calculate <S**2> as in Hartree-Fock theory. We will do it anyways
         but you should keep in mind that the values have only limited relevance

Expectation value of <S**2>     :     0.753261
Ideal value S*(S+1) for S=0.5   :     0.750000
Deviation                       :     0.003261

             **** THE GBW FILE WAS UPDATED (16_0_orca.gbw) ****
             **** DENSITY 16_0_orca.scfp WAS UPDATED ****
----------------
ORBITAL ENERGIES
----------------
                 SPIN UP ORBITALS
  NO   OCC          E(Eh)            E(eV) 
   0   1.0000     -19.240249      -523.5538 
   1   1.0000     -19.199846      -522.4544 
   2   1.0000     -10.294237      -280.1204 
   3   1.0000     -10.290315      -280.0137 
   4   1.0000     -10.246145      -278.8118 
   5   1.0000     -10.244303      -278.7617 
   6   1.0000     -10.238473      -278.6030 
   7   1.0000      -1.138821       -30.9889 
   8   1.0000      -0.959616       -26.1125 
   9   1.0000      -0.847355       -23.0577 
  10   1.0000      -0.755111       -20.5476 
  11   1.0000      -0.683114       -18.5885 
  12   1.0000      -0.603890       -16.4327 
  13   1.0000      -0.572111       -15.5679 
  14   1.0000      -0.567373       -15.4390 
  15   1.0000      -0.479838       -13.0571 
  16   1.0000      -0.472377       -12.8540 
  17   1.0000      -0.443776       -12.0758 
  18   1.0000      -0.430525       -11.7152 
  19   1.0000      -0.413457       -11.2507 
  20   1.0000      -0.400974       -10.9111 
  21   1.0000      -0.385400       -10.4873 
  22   1.0000      -0.359814        -9.7910 
  23   1.0000      -0.329945        -8.9783 
  24   1.0000      -0.294023        -8.0008 
  25   1.0000      -0.285535        -7.7698 
  26   1.0000      -0.244881        -6.6636 
  27   0.0000      -0.008964        -0.2439 
  28   0.0000       0.075280         2.0485 
  29   0.0000       0.098772         2.6877 
  30   0.0000       0.108547         2.9537 
  31   0.0000       0.113480         3.0880 
  32   0.0000       0.130989         3.5644 
  33   0.0000       0.142715         3.8835 
  34   0.0000       0.144300         3.9266 
  35   0.0000       0.153485         4.1765 
  36   0.0000       0.176009         4.7895 
  37   0.0000       0.208748         5.6803 
  38   0.0000       0.225670         6.1408 
  39   0.0000       0.303009         8.2453 
  40   0.0000       0.315094         8.5741 
  41   0.0000       0.389219        10.5912 
  42   0.0000       0.404324        11.0022 
  43   0.0000       0.455635        12.3985 
  44   0.0000       0.474402        12.9091 
  45   0.0000       0.484223        13.1764 
  46   0.0000       0.502930        13.6854 
  47   0.0000       0.516051        14.0424 
  48   0.0000       0.553148        15.0519 
  49   0.0000       0.562997        15.3199 
  50   0.0000       0.570519        15.5246 
  51   0.0000       0.597073        16.2472 
  52   0.0000       0.621417        16.9096 
  53   0.0000       0.637316        17.3423 
  54   0.0000       0.647099        17.6085 
  55   0.0000       0.660939        17.9851 
  56   0.0000       0.671523        18.2731 
  57   0.0000       0.681263        18.5381 
  58   0.0000       0.686573        18.6826 
  59   0.0000       0.687163        18.6987 
  60   0.0000       0.706222        19.2173 
  61   0.0000       0.731950        19.9174 
  62   0.0000       0.766901        20.8684 
  63   0.0000       0.802667        21.8417 
  64   0.0000       0.846268        23.0281 
  65   0.0000       0.899419        24.4744 
  66   0.0000       0.940085        25.5810 
  67   0.0000       0.994984        27.0749 
  68   0.0000       1.004406        27.3313 
  69   0.0000       1.033439        28.1213 
  70   0.0000       1.050856        28.5952 
  71   0.0000       1.065683        28.9987 
  72   0.0000       1.088517        29.6200 
  73   0.0000       1.146578        31.2000 
  74   0.0000       1.209148        32.9026 
  75   0.0000       1.243652        33.8415 
  76   0.0000       1.302019        35.4297 
  77   0.0000       1.338486        36.4221 
  78   0.0000       1.459454        39.7138 
  79   0.0000       1.482367        40.3373 
  80   0.0000       1.513425        41.1824 
  81   0.0000       1.524066        41.4720 
  82   0.0000       1.555079        42.3159 
  83   0.0000       1.560414        42.4610 
  84   0.0000       1.615226        43.9525 
  85   0.0000       1.640282        44.6343 
  86   0.0000       1.675931        45.6044 
  87   0.0000       1.708789        46.4985 
  88   0.0000       1.724857        46.9357 
  89   0.0000       1.751007        47.6473 
  90   0.0000       1.781370        48.4735 
  91   0.0000       1.806012        49.1441 
  92   0.0000       1.821405        49.5630 
  93   0.0000       1.850496        50.3546 
  94   0.0000       1.864847        50.7451 
  95   0.0000       1.886687        51.3394 
  96   0.0000       1.942474        52.8574 
  97   0.0000       1.969533        53.5937 
  98   0.0000       1.987826        54.0915 
  99   0.0000       2.012949        54.7751 
 100   0.0000       2.060167        56.0600 
 101   0.0000       2.097798        57.0840 
 102   0.0000       2.124233        57.8033 
 103   0.0000       2.145914        58.3933 
 104   0.0000       2.197991        59.8104 
 105   0.0000       2.241052        60.9821 
 106   0.0000       2.257261        61.4232 
 107   0.0000       2.273320        61.8602 
 108   0.0000       2.297294        62.5125 
 109   0.0000       2.391581        65.0782 
 110   0.0000       2.429839        66.1193 
 111   0.0000       2.489883        67.7532 
 112   0.0000       2.520895        68.5971 
 113   0.0000       2.598968        70.7215 
 114   0.0000       2.658430        72.3396 
 115   0.0000       2.685648        73.0802 
 116   0.0000       2.726727        74.1980 
 117   0.0000       2.744740        74.6882 
 118   0.0000       2.760396        75.1142 
 119   0.0000       2.799426        76.1762 
 120   0.0000       2.828045        76.9550 
 121   0.0000       2.898064        78.8603 
 122   0.0000       2.908766        79.1515 
 123   0.0000       2.969018        80.7911 
 124   0.0000       3.019652        82.1689 
 125   0.0000       3.028686        82.4147 
 126   0.0000       3.057662        83.2032 
 127   0.0000       3.105372        84.5015 
 128   0.0000       3.179221        86.5110 
 129   0.0000       3.351268        91.1926 
 130   0.0000       3.405176        92.6596 
 131   0.0000       3.481555        94.7379 
 132   0.0000       3.765545       102.4657 

                 SPIN DOWN ORBITALS
  NO   OCC          E(Eh)            E(eV) 
   0   1.0000     -19.234098      -523.3864 
   1   1.0000     -19.175210      -521.7840 
   2   1.0000     -10.294334      -280.1231 
   3   1.0000     -10.290473      -280.0180 
   4   1.0000     -10.246120      -278.8111 
   5   1.0000     -10.244043      -278.7546 
   6   1.0000     -10.238374      -278.6003 
   7   1.0000      -1.130891       -30.7731 
   8   1.0000      -0.896082       -24.3836 
   9   1.0000      -0.843874       -22.9630 
  10   1.0000      -0.754787       -20.5388 
  11   1.0000      -0.679927       -18.5018 
  12   1.0000      -0.602999       -16.4084 
  13   1.0000      -0.570231       -15.5168 
  14   1.0000      -0.562776       -15.3139 
  15   1.0000      -0.473919       -12.8960 
  16   1.0000      -0.471238       -12.8230 
  17   1.0000      -0.436741       -11.8843 
  18   1.0000      -0.418686       -11.3930 
  19   1.0000      -0.408873       -11.1260 
  20   1.0000      -0.389462       -10.5978 
  21   1.0000      -0.380497       -10.3538 
  22   1.0000      -0.332682        -9.0527 
  23   1.0000      -0.303687        -8.2637 
  24   1.0000      -0.262329        -7.1383 
  25   1.0000      -0.255804        -6.9608 
  26   0.0000      -0.060882        -1.6567 
  27   0.0000      -0.007539        -0.2052 
  28   0.0000       0.076971         2.0945 
  29   0.0000       0.101104         2.7512 
  30   0.0000       0.109704         2.9852 
  31   0.0000       0.115396         3.1401 
  32   0.0000       0.132598         3.6082 
  33   0.0000       0.143598         3.9075 
  34   0.0000       0.144653         3.9362 
  35   0.0000       0.154207         4.1962 
  36   0.0000       0.179085         4.8731 
  37   0.0000       0.210731         5.7343 
  38   0.0000       0.226178         6.1546 
  39   0.0000       0.303412         8.2563 
  40   0.0000       0.315443         8.5836 
  41   0.0000       0.389485        10.5984 
  42   0.0000       0.404627        11.0105 
  43   0.0000       0.456274        12.4158 
  44   0.0000       0.475175        12.9302 
  45   0.0000       0.484707        13.1896 
  46   0.0000       0.503670        13.7055 
  47   0.0000       0.516916        14.0660 
  48   0.0000       0.554225        15.0812 
  49   0.0000       0.565821        15.3968 
  50   0.0000       0.571625        15.5547 
  51   0.0000       0.597865        16.2687 
  52   0.0000       0.622478        16.9385 
  53   0.0000       0.637824        17.3561 
  54   0.0000       0.649309        17.6686 
  55   0.0000       0.668125        18.1806 
  56   0.0000       0.673900        18.3378 
  57   0.0000       0.682068        18.5600 
  58   0.0000       0.686862        18.6905 
  59   0.0000       0.687614        18.7109 
  60   0.0000       0.706544        19.2260 
  61   0.0000       0.732910        19.9435 
  62   0.0000       0.767698        20.8901 
  63   0.0000       0.803545        21.8656 
  64   0.0000       0.847420        23.0595 
  65   0.0000       0.904383        24.6095 
  66   0.0000       0.958169        26.0731 
  67   0.0000       1.001068        27.2404 
  68   0.0000       1.027918        27.9711 
  69   0.0000       1.046730        28.4830 
  70   0.0000       1.067873        29.0583 
  71   0.0000       1.086689        29.5703 
  72   0.0000       1.101376        29.9700 
  73   0.0000       1.156527        31.4707 
  74   0.0000       1.219896        33.1951 
  75   0.0000       1.244702        33.8701 
  76   0.0000       1.307236        35.5717 
  77   0.0000       1.339712        36.4554 
  78   0.0000       1.462729        39.8029 
  79   0.0000       1.482700        40.3463 
  80   0.0000       1.517361        41.2895 
  81   0.0000       1.535226        41.7756 
  82   0.0000       1.558476        42.4083 
  83   0.0000       1.563885        42.5555 
  84   0.0000       1.618332        44.0370 
  85   0.0000       1.642053        44.6825 
  86   0.0000       1.679082        45.6902 
  87   0.0000       1.709181        46.5092 
  88   0.0000       1.726727        46.9866 
  89   0.0000       1.752178        47.6792 
  90   0.0000       1.783151        48.5220 
  91   0.0000       1.809741        49.2456 
  92   0.0000       1.821971        49.5784 
  93   0.0000       1.853065        50.4245 
  94   0.0000       1.866260        50.7835 
  95   0.0000       1.887525        51.3622 
  96   0.0000       1.943115        52.8749 
  97   0.0000       1.970057        53.6080 
  98   0.0000       1.988709        54.1155 
  99   0.0000       2.013429        54.7882 
 100   0.0000       2.060749        56.0758 
 101   0.0000       2.099129        57.1202 
 102   0.0000       2.125752        57.8447 
 103   0.0000       2.146879        58.4195 
 104   0.0000       2.198930        59.8359 
 105   0.0000       2.242166        61.0124 
 106   0.0000       2.268374        61.7256 
 107   0.0000       2.277199        61.9657 
 108   0.0000       2.298767        62.5526 
 109   0.0000       2.391748        65.0828 
 110   0.0000       2.430922        66.1487 
 111   0.0000       2.490847        67.7794 
 112   0.0000       2.521336        68.6091 
 113   0.0000       2.603248        70.8380 
 114   0.0000       2.673299        72.7442 
 115   0.0000       2.731103        74.3171 
 116   0.0000       2.743794        74.6624 
 117   0.0000       2.750533        74.8458 
 118   0.0000       2.785908        75.8084 
 119   0.0000       2.806209        76.3608 
 120   0.0000       2.853792        77.6556 
 121   0.0000       2.904213        79.0277 
 122   0.0000       2.928462        79.6875 
 123   0.0000       2.982658        81.1622 
 124   0.0000       3.033312        82.5406 
 125   0.0000       3.057837        83.2080 
 126   0.0000       3.081077        83.8404 
 127   0.0000       3.109371        84.6103 
 128   0.0000       3.184112        86.6441 
 129   0.0000       3.358602        91.3922 
 130   0.0000       3.408547        92.7513 
 131   0.0000       3.484620        94.8213 
 132   0.0000       3.787516       103.0636 

                    ********************************
                    * MULLIKEN POPULATION ANALYSIS *
                    ********************************

--------------------------------------------
MULLIKEN ATOMIC CHARGES AND SPIN POPULATIONS
--------------------------------------------
   0 O :   -0.267650    0.877434
   1 O :   -0.287891    0.138943
   2 C :    0.018891   -0.009153
   3 C :    0.071050   -0.005969
   4 C :    0.021537    0.001750
   5 C :   -0.135895    0.014884
   6 C :    0.108440    0.000075
   7 H :    0.160791   -0.022204
   8 H :    0.065529    0.001874
   9 H :    0.042650    0.003241
  10 H :    0.035904    0.000091
  11 H :    0.032969   -0.000861
  12 H :    0.065770   -0.000133
  13 H :    0.067906    0.000029
Sum of atomic charges         :   -0.0000000
Sum of atomic spin populations:    1.0000000

-----------------------------------------------------
MULLIKEN REDUCED ORBITAL CHARGES AND SPIN POPULATIONS
-----------------------------------------------------
CHARGE
  0 O s       :     3.856916  s :     3.856916
      pz      :     1.289731  p :     4.403841
      px      :     1.199601
      py      :     1.914509
      dz2     :     0.003101  d :     0.006894
      dxz     :     0.002375
      dyz     :     0.000641
      dx2y2   :     0.000503
      dxy     :     0.000273
  1 O s       :     3.866068  s :     3.866068
      pz      :     1.371287  p :     4.400001
      px      :     1.610480
      py      :     1.418234
      dz2     :     0.005877  d :     0.021822
      dxz     :     0.002943
      dyz     :     0.005690
      dx2y2   :     0.003431
      dxy     :     0.003881
  2 C s       :     3.204086  s :     3.204086
      pz      :     0.764068  p :     2.701836
      px      :     1.000042
      py      :     0.937726
      dz2     :     0.021442  d :     0.075188
      dxz     :     0.017038
      dyz     :     0.019408
      dx2y2   :     0.007661
      dxy     :     0.009639
  3 C s       :     3.185804  s :     3.185804
      pz      :     0.960405  p :     2.670818
      px      :     0.923194
      py      :     0.787219
      dz2     :     0.008732  d :     0.072327
      dxz     :     0.011285
      dyz     :     0.013434
      dx2y2   :     0.018810
      dxy     :     0.020067
  4 C s       :     3.155479  s :     3.155479
      pz      :     0.988900  p :     2.788222
      px      :     0.842374
      py      :     0.956949
      dz2     :     0.005685  d :     0.034762
      dxz     :     0.007839
      dyz     :     0.004839
      dx2y2   :     0.008289
      dxy     :     0.008109
  5 C s       :     3.214451  s :     3.214451
      pz      :     0.971212  p :     2.883239
      px      :     0.959820
      py      :     0.952207
      dz2     :     0.007843  d :     0.038205
      dxz     :     0.007216
      dyz     :     0.005640
      dx2y2   :     0.007915
      dxy     :     0.009592
  6 C s       :     2.928172  s :     2.928172
      pz      :     0.974975  p :     2.927598
      px      :     0.943597
      py      :     1.009025
      dz2     :     0.007934  d :     0.035791
      dxz     :     0.008076
      dyz     :     0.005501
      dx2y2   :     0.007194
      dxy     :     0.007085
  7 H s       :     0.771529  s :     0.771529
      pz      :     0.030501  p :     0.067679
      px      :     0.016009
      py      :     0.021170
  8 H s       :     0.911724  s :     0.911724
      pz      :     0.002625  p :     0.022748
      px      :     0.014889
      py      :     0.005233
  9 H s       :     0.934794  s :     0.934794
      pz      :     0.007222  p :     0.022557
      px      :     0.003718
      py      :     0.011617
 10 H s       :     0.939757  s :     0.939757
      pz      :     0.007861  p :     0.024340
      px      :     0.011718
      py      :     0.004761
 11 H s       :     0.943606  s :     0.943606
      pz      :     0.004667  p :     0.023424
      px      :     0.010162
      py      :     0.008595
 12 H s       :     0.910940  s :     0.910940
      pz      :     0.013117  p :     0.023290
      px      :     0.004430
      py      :     0.005743
 13 H s       :     0.908838  s :     0.908838
      pz      :     0.004261  p :     0.023256
      px      :     0.005818
      py      :     0.013177

SPIN
  0 O s       :     0.012419  s :     0.012419
      pz      :     0.132839  p :     0.864698
      px      :     0.684276
      py      :     0.047583
      dz2     :    -0.000136  d :     0.000317
      dxz     :     0.000311
      dyz     :     0.000039
      dx2y2   :     0.000063
      dxy     :     0.000038
  1 O s       :     0.008830  s :     0.008830
      pz      :     0.023217  p :     0.129754
      px      :     0.091650
      py      :     0.014888
      dz2     :    -0.000133  d :     0.000358
      dxz     :     0.000337
      dyz     :     0.000011
      dx2y2   :     0.000212
      dxy     :    -0.000070
  2 C s       :    -0.000884  s :    -0.000884
      pz      :    -0.006446  p :    -0.008960
      px      :    -0.000781
      py      :    -0.001732
      dz2     :     0.000209  d :     0.000691
      dxz     :     0.000316
      dyz     :    -0.000013
      dx2y2   :     0.000018
      dxy     :     0.000161
  3 C s       :    -0.000621  s :    -0.000621
      pz      :    -0.001300  p :    -0.006244
      px      :    -0.001387
      py      :    -0.003557
      dz2     :     0.000044  d :     0.000895
      dxz     :    -0.000003
      dyz     :     0.000000
      dx2y2   :     0.000906
      dxy     :    -0.000052
  4 C s       :    -0.000533  s :    -0.000533
      pz      :    -0.000619  p :     0.002172
      px      :     0.004278
      py      :    -0.001487
      dz2     :     0.000019  d :     0.000110
      dxz     :     0.000021
      dyz     :    -0.000002
      dx2y2   :     0.000051
      dxy     :     0.000022
  5 C s       :     0.002667  s :     0.002667
      pz      :     0.005265  p :     0.012236
      px      :     0.001474
      py      :     0.005497
      dz2     :     0.000009  d :    -0.000019
      dxz     :     0.000000
      dyz     :    -0.000017
      dx2y2   :    -0.000021
      dxy     :     0.000011
  6 C s       :    -0.000527  s :    -0.000527
      pz      :     0.000492  p :     0.000599
      px      :    -0.000348
      py      :     0.000455
      dz2     :    -0.000039  d :     0.000002
      dxz     :     0.000020
      dyz     :    -0.000002
      dx2y2   :    -0.000008
      dxy     :     0.000030
  7 H s       :    -0.028146  s :    -0.028146
      pz      :     0.001497  p :     0.005942
      px      :     0.004812
      py      :    -0.000367
  8 H s       :     0.001916  s :     0.001916
      pz      :    -0.000033  p :    -0.000042
      px      :    -0.000003
      py      :    -0.000007
  9 H s       :     0.003293  s :     0.003293
      pz      :    -0.000025  p :    -0.000051
      px      :    -0.000009
      py      :    -0.000017
 10 H s       :     0.000065  s :     0.000065
      pz      :     0.000042  p :     0.000026
      px      :    -0.000001
      py      :    -0.000015
 11 H s       :    -0.000967  s :    -0.000967
      pz      :     0.000049  p :     0.000106
      px      :     0.000017
      py      :     0.000041
 12 H s       :    -0.000140  s :    -0.000140
      pz      :    -0.000000  p :     0.000007
      px      :     0.000005
      py      :     0.000003
 13 H s       :     0.000035  s :     0.000035
      pz      :    -0.000001  p :    -0.000006
      px      :    -0.000004
      py      :    -0.000002


                     *******************************
                     * LOEWDIN POPULATION ANALYSIS *
                     *******************************

-------------------------------------------
LOEWDIN ATOMIC CHARGES AND SPIN POPULATIONS
-------------------------------------------
   0 O :   -0.167364    0.834523
   1 O :   -0.087826    0.150832
   2 C :    0.058220   -0.003964
   3 C :    0.050349   -0.002512
   4 C :   -0.057295    0.002263
   5 C :   -0.003154    0.011266
   6 C :   -0.047275    0.000644
   7 H :    0.042789    0.004316
   8 H :    0.028698    0.000932
   9 H :    0.026558    0.001689
  10 H :    0.034321    0.000295
  11 H :    0.026354   -0.000093
  12 H :    0.045819   -0.000134
  13 H :    0.049805   -0.000057

----------------------------------------------------
LOEWDIN REDUCED ORBITAL CHARGES AND SPIN POPULATIONS
----------------------------------------------------
CHARGE
  0 O s       :     3.676026  s :     3.676026
      pz      :     1.377428  p :     4.478774
      px      :     1.215785
      py      :     1.885561
      dz2     :     0.006366  d :     0.012564
      dxz     :     0.004689
      dyz     :     0.000307
      dx2y2   :     0.000934
      dxy     :     0.000268
  1 O s       :     3.547581  s :     3.547581
      pz      :     1.426252  p :     4.503782
      px      :     1.597254
      py      :     1.480277
      dz2     :     0.009578  d :     0.036463
      dxz     :     0.004601
      dyz     :     0.010516
      dx2y2   :     0.005369
      dxy     :     0.006398
  2 C s       :     2.852468  s :     2.852468
      pz      :     0.867019  p :     2.923241
      px      :     1.055978
      py      :     1.000244
      dz2     :     0.043417  d :     0.166071
      dxz     :     0.040250
      dyz     :     0.044066
      dx2y2   :     0.015535
      dxy     :     0.022803
  3 C s       :     2.857118  s :     2.857118
      pz      :     1.024790  p :     2.932127
      px      :     0.993664
      py      :     0.913672
      dz2     :     0.019270  d :     0.160406
      dxz     :     0.025774
      dyz     :     0.029360
      dx2y2   :     0.044402
      dxy     :     0.041600
  4 C s       :     2.874687  s :     2.874687
      pz      :     1.034301  p :     3.091824
      px      :     1.021244
      py      :     1.036280
      dz2     :     0.012342  d :     0.090784
      dxz     :     0.020399
      dyz     :     0.013765
      dx2y2   :     0.023169
      dxy     :     0.021109
  5 C s       :     2.879350  s :     2.879350
      pz      :     0.995621  p :     3.029853
      px      :     1.001688
      py      :     1.032543
      dz2     :     0.016405  d :     0.093951
      dxz     :     0.018656
      dyz     :     0.014920
      dx2y2   :     0.020344
      dxy     :     0.023627
  6 C s       :     2.836981  s :     2.836981
      pz      :     1.037053  p :     3.117234
      px      :     1.027128
      py      :     1.053052
      dz2     :     0.020671  d :     0.093060
      dxz     :     0.021895
      dyz     :     0.013543
      dx2y2   :     0.018894
      dxy     :     0.018057
  7 H s       :     0.771673  s :     0.771673
      pz      :     0.088155  p :     0.185538
      px      :     0.042796
      py      :     0.054587
  8 H s       :     0.898963  s :     0.898963
      pz      :     0.010900  p :     0.072338
      px      :     0.043863
      py      :     0.017576
  9 H s       :     0.902769  s :     0.902769
      pz      :     0.022460  p :     0.070673
      px      :     0.014174
      py      :     0.034039
 10 H s       :     0.894276  s :     0.894276
      pz      :     0.022767  p :     0.071404
      px      :     0.034461
      py      :     0.014176
 11 H s       :     0.904282  s :     0.904282
      pz      :     0.014962  p :     0.069363
      px      :     0.030510
      py      :     0.023892
 12 H s       :     0.887430  s :     0.887430
      pz      :     0.037257  p :     0.066751
      px      :     0.013347
      py      :     0.016147
 13 H s       :     0.882823  s :     0.882823
      pz      :     0.012309  p :     0.067372
      px      :     0.017506
      py      :     0.037558

SPIN
  0 O s       :     0.010513  s :     0.010513
      pz      :     0.121846  p :     0.823917
      px      :     0.655985
      py      :     0.046086
      dz2     :    -0.000245  d :     0.000093
      dxz     :     0.000264
      dyz     :     0.000006
      dx2y2   :     0.000024
      dxy     :     0.000045
  1 O s       :     0.011774  s :     0.011774
      pz      :     0.023855  p :     0.138660
      px      :     0.100993
      py      :     0.013812
      dz2     :    -0.000112  d :     0.000398
      dxz     :     0.000350
      dyz     :     0.000004
      dx2y2   :     0.000254
      dxy     :    -0.000098
  2 C s       :    -0.000506  s :    -0.000506
      pz      :    -0.003514  p :    -0.005409
      px      :    -0.000048
      py      :    -0.001847
      dz2     :     0.000658  d :     0.001951
      dxz     :     0.000965
      dyz     :    -0.000038
      dx2y2   :     0.000075
      dxy     :     0.000291
  3 C s       :    -0.000671  s :    -0.000671
      pz      :    -0.000943  p :    -0.003829
      px      :    -0.000650
      py      :    -0.002235
      dz2     :     0.000040  d :     0.001988
      dxz     :     0.000005
      dyz     :     0.000061
      dx2y2   :     0.001858
      dxy     :     0.000023
  4 C s       :     0.000452  s :     0.000452
      pz      :     0.000544  p :     0.001470
      px      :     0.002530
      py      :    -0.001604
      dz2     :     0.000032  d :     0.000341
      dxz     :     0.000034
      dyz     :    -0.000002
      dx2y2   :     0.000198
      dxy     :     0.000078
  5 C s       :     0.000859  s :     0.000859
      pz      :     0.005009  p :     0.010401
      px      :     0.001976
      py      :     0.003415
      dz2     :    -0.000003  d :     0.000006
      dxz     :     0.000060
      dyz     :    -0.000006
      dx2y2   :    -0.000030
      dxy     :    -0.000015
  6 C s       :     0.000178  s :     0.000178
      pz      :     0.000333  p :     0.000442
      px      :    -0.000138
      py      :     0.000247
      dz2     :    -0.000070  d :     0.000024
      dxz     :     0.000052
      dyz     :    -0.000001
      dx2y2   :    -0.000018
      dxy     :     0.000061
  7 H s       :    -0.018804  s :    -0.018804
      pz      :     0.007162  p :     0.023119
      px      :     0.015685
      py      :     0.000272
  8 H s       :     0.001067  s :     0.001067
      pz      :    -0.000126  p :    -0.000135
      px      :     0.000055
      py      :    -0.000064
  9 H s       :     0.001852  s :     0.001852
      pz      :    -0.000018  p :    -0.000163
      px      :    -0.000020
      py      :    -0.000124
 10 H s       :     0.000173  s :     0.000173
      pz      :     0.000069  p :     0.000122
      px      :     0.000076
      py      :    -0.000023
 11 H s       :    -0.000475  s :    -0.000475
      pz      :     0.000170  p :     0.000382
      px      :     0.000097
      py      :     0.000115
 12 H s       :    -0.000174  s :    -0.000174
      pz      :     0.000005  p :     0.000040
      px      :     0.000017
      py      :     0.000018
 13 H s       :    -0.000056  s :    -0.000056
      pz      :     0.000011  p :    -0.000001
      px      :    -0.000012
      py      :    -0.000000


                      *****************************
                      * MAYER POPULATION ANALYSIS *
                      *****************************

  NA   - Mulliken gross atomic population
  ZA   - Total nuclear charge
  QA   - Mulliken gross atomic charge
  VA   - Mayer's total valence
  BVA  - Mayer's bonded valence
  FA   - Mayer's free valence

  ATOM       NA         ZA         QA         VA         BVA        FA
  0 O      8.2676     8.0000    -0.2676     2.0199     1.2958     0.7241
  1 O      8.2879     8.0000    -0.2879     2.0994     2.0788     0.0206
  2 C      5.9811     6.0000     0.0189     3.9644     3.9643     0.0001
  3 C      5.9289     6.0000     0.0711     3.9165     3.9165     0.0000
  4 C      5.9785     6.0000     0.0215     3.7794     3.7794     0.0000
  5 C      6.1359     6.0000    -0.1359     3.9891     3.9889     0.0002
  6 C      5.8916     6.0000     0.1084     3.8047     3.8046     0.0000
  7 H      0.8392     1.0000     0.1608     1.0141     1.0130     0.0011
  8 H      0.9345     1.0000     0.0655     1.0111     1.0111     0.0000
  9 H      0.9574     1.0000     0.0426     1.0014     1.0013     0.0000
 10 H      0.9641     1.0000     0.0359     0.9897     0.9897     0.0000
 11 H      0.9670     1.0000     0.0330     0.9877     0.9877     0.0000
 12 H      0.9342     1.0000     0.0658     0.9805     0.9805     0.0000
 13 H      0.9321     1.0000     0.0679     0.9831     0.9831     0.0000

  Mayer bond orders larger than 0.100000
B(  0-O ,  1-O ) :   0.1952 B(  0-O ,  7-H ) :   0.9926 B(  1-O ,  2-C ) :   0.9090 
B(  1-O ,  3-C ) :   0.9027 B(  2-C ,  3-C ) :   1.0196 B(  2-C ,  6-C ) :   0.9989 
B(  2-C ,  8-H ) :   0.9631 B(  3-C ,  4-C ) :   0.9697 B(  3-C ,  9-H ) :   0.9781 
B(  4-C ,  5-C ) :   1.8308 B(  4-C , 10-H ) :   0.9955 B(  5-C ,  6-C ) :   1.0217 
B(  5-C , 11-H ) :   0.9666 B(  6-C , 12-H ) :   0.9255 B(  6-C , 13-H ) :   0.9213 



------------------
HIRSHFELD ANALYSIS
------------------

Total integrated alpha density =     26.999997941
Total integrated beta density  =     25.999997618

  ATOM     CHARGE      SPIN    
   0 O   -0.260658    0.805364
   1 O   -0.124942    0.149157
   2 C    0.055180    0.001026
   3 C    0.043576    0.001897
   4 C   -0.053365    0.004007
   5 C   -0.021641    0.010724
   6 C   -0.039801    0.001405
   7 H    0.135331    0.022739
   8 H    0.049847    0.001358
   9 H    0.050680    0.001251
  10 H    0.046446    0.000458
  11 H    0.034354    0.000573
  12 H    0.041022    0.000014
  13 H    0.043975    0.000029

  TOTAL   0.000004    1.000000

-------
TIMINGS
-------

Total SCF time: 0 days 0 hours 0 min 56 sec 

Total time                  ....      56.459 sec
Sum of individual times     ....      56.306 sec  ( 99.7%)

Fock matrix formation       ....      54.420 sec  ( 96.4%)
  Split-RI-J                ....       3.342 sec  (  6.1% of F)
  Chain of spheres X        ....      36.985 sec  ( 68.0% of F)
  XC integration            ....      14.103 sec  ( 25.9% of F)
    Basis function eval.    ....       4.000 sec  ( 28.4% of XC)
    Density eval.           ....       3.838 sec  ( 27.2% of XC)
    XC-Functional eval.     ....       1.352 sec  (  9.6% of XC)
    XC-Potential eval.      ....       4.590 sec  ( 32.5% of XC)
Diagonalization             ....       0.087 sec  (  0.2%)
Density matrix formation    ....       0.007 sec  (  0.0%)
Population analysis         ....       0.386 sec  (  0.7%)
Initial guess               ....       0.219 sec  (  0.4%)
Orbital Transformation      ....       0.000 sec  (  0.0%)
Orbital Orthonormalization  ....       0.000 sec  (  0.0%)
DIIS solution               ....       0.021 sec  (  0.0%)
Grid generation             ....       1.165 sec  (  2.1%)

Maximum memory used throughout the entire SCF-calculation: 63.5 MB


-------------------------------------------------------------------------------
                          DFT DISPERSION CORRECTION                            
                                                                               
                              DFTD3 V3.1  Rev 1                                
                          USING Becke-Johnson damping                          
-------------------------------------------------------------------------------
The PBE0 functional is recognized
Active option DFTDOPT                   ...         4   

molecular C6(AA) [au] = 1733.458960 


            DFT-D V3
 parameters
 s6 scaling factor         :     1.0000 
 a1 scaling factor         :     0.4145 
 s8 scaling factor         :     1.2177 
 a2 scaling factor         :     4.8593 
 ad hoc parameters k1-k3   :    16.0000     1.3333    -4.0000 

 Edisp/kcal,au: -6.156646069403  -0.009811238981 
 E6   /kcal   :  -3.916976279 
 E8   /kcal   :  -2.239669790 
 % E8         :  36.378082559 

-------------------------   ----------------
Dispersion correction           -0.009811239
-------------------------   ----------------


-------------------------   --------------------
FINAL SINGLE POINT ENERGY      -344.369944803227
-------------------------   --------------------

------------------------------------------------------------------------------
                         ORCA SCF GRADIENT CALCULATION
------------------------------------------------------------------------------

 ... reading COSX grid (gridx3)
Gradient of the Kohn-Sham DFT energy:
Kohn-Sham wavefunction type      ... UKS
Hartree-Fock exchange scaling    ...    0.250
Number of operators              ...    2
Number of atoms                  ...   14
Basis set dimensions             ...  133
Integral neglect threshold       ... 2.5e-11
Integral primitive cutoff        ... 2.5e-12
SHARK Integral package           ... ON

Nuc. rep. gradient       (SHARK) ... done (  0.0 sec)
HCore & Overlap gradient (SHARK) ... done (  0.1 sec)
RI-J gradient            (SHARK) ... done (  0.6 sec)
COSX-gradient                    ... done (  6.8 sec)
Exchange-correlation gradient    ... done
Dispersion correction            ... done

------------------
CARTESIAN GRADIENT
------------------

   1   O   :    0.017563112   -0.005266909   -0.000868574
   2   O   :    0.030847872   -0.003416661   -0.024875050
   3   C   :    0.001684445   -0.001423121    0.001075050
   4   C   :    0.001465269   -0.000320650    0.001623897
   5   C   :   -0.001266692    0.000744520   -0.002431272
   6   C   :   -0.047433058    0.008435465    0.035166476
   7   C   :   -0.000620319   -0.000104938   -0.001933175
   8   H   :   -0.002522424    0.001293464   -0.005297824
   9   H   :    0.000594748    0.001245005   -0.002302413
  10   H   :   -0.000003496   -0.000857331    0.000810527
  11   H   :   -0.000016990    0.000011151   -0.000420614
  12   H   :   -0.000397423   -0.000209613   -0.000432695
  13   H   :    0.000071839   -0.000168012   -0.000285428
  14   H   :    0.000087017   -0.000036957    0.000003270

Difference to translation invariance:
           :    0.0000538988   -0.0000745858   -0.0001678246

Difference to rotation invariance:
           :    0.0000833058    0.0002738674   -0.0000017440

Norm of the cartesian gradient     ...    0.0744662436
RMS gradient                       ...    0.0114903908
MAX gradient                       ...    0.0474330577

-------
TIMINGS
-------

Total SCF gradient time            ...       11.738 sec

One electron gradient       ....       0.099 sec  (  0.8%)
RI-J Coulomb gradient       ....       0.608 sec  (  5.2%)
COSX gradient               ....       6.835 sec  ( 58.2%)
XC gradient                 ....       3.877 sec  ( 33.0%)

Maximum memory used throughout the entire SCFGRAD-calculation: 50.4 MB

                            ***************************************
                            *     ORCA property calculations      *
                            ***************************************

                                    ---------------------
                                    Active property flags
                                    ---------------------
   (+) Dipole Moment


------------------------------------------------------------------------------
                       ORCA ELECTRIC PROPERTIES CALCULATION
------------------------------------------------------------------------------

Dipole Moment Calculation                       ... on
Quadrupole Moment Calculation                   ... off
Polarizability Calculation                      ... off
GBWName                                         ... 16_0_orca.gbw
Electron density                                ... 16_0_orca.scfp
The origin for moment calculation is the CENTER OF MASS  = (-0.348429, -0.008141  0.365555)

-------------
DIPOLE MOMENT
-------------
                                X             Y             Z
Electronic contribution:     -0.93625       0.37192       1.79716
Nuclear contribution   :      1.71110      -0.01544      -2.06278
                        -----------------------------------------
Total Dipole Moment    :      0.77486       0.35648      -0.26561
                        -----------------------------------------
Magnitude (a.u.)       :      0.89332
Magnitude (Debye)      :      2.27065



--------------------
Rotational spectrum 
--------------------
 
Rotational constants in cm-1:     0.198992     0.071456     0.060378 
Rotational constants in MHz :  5965.639977  2142.182436  1810.096919 

 Dipole components along the rotational axes: 
x,y,z [a.u.] :     0.763755     0.356240     0.296313 
x,y,z [Debye]:     1.941310     0.905489     0.753167 

 

Timings for individual modules:

Sum of individual times         ...       68.411 sec (=   1.140 min)
GTO integral calculation        ...        0.160 sec (=   0.003 min)   0.2 %
SCF iterations                  ...       56.483 sec (=   0.941 min)  82.6 %
SCF Gradient evaluation         ...       11.768 sec (=   0.196 min)  17.2 %
                             ****ORCA TERMINATED NORMALLY****
TOTAL RUN TIME: 0 days 0 hours 1 minutes 8 seconds 566 msec
