
                                 *****************
                                 * O   R   C   A *
                                 *****************

                                            #,                                       
                                            ###                                      
                                            ####                                     
                                            #####                                    
                                            ######                                   
                                           ########,                                 
                                     ,,################,,,,,                         
                               ,,#################################,,                 
                          ,,##########################################,,             
                       ,#########################################, ''#####,          
                    ,#############################################,,   '####,        
                  ,##################################################,,,,####,       
                ,###########''''           ''''###############################       
              ,#####''   ,,,,##########,,,,          '''####'''          '####       
            ,##' ,,,,###########################,,,                        '##       
           ' ,,###''''                  '''############,,,                           
         ,,##''                                '''############,,,,        ,,,,,,###''
      ,#''                                            '''#######################'''  
     '                                                          ''''####''''         
             ,#######,   #######,   ,#######,      ##                                
            ,#'     '#,  ##    ##  ,#'     '#,    #''#        ######   ,####,        
            ##       ##  ##   ,#'  ##            #'  '#       #        #'  '#        
            ##       ##  #######   ##           ,######,      #####,   #    #        
            '#,     ,#'  ##    ##  '#,     ,#' ,#      #,         ##   #,  ,#        
             '#######'   ##     ##  '#######'  #'      '#     #####' # '####'        



                  #######################################################
                  #                        -***-                        #
                  #          Department of theory and spectroscopy      #
                  #    Directorship and core code : Frank Neese         #
                  #        Max Planck Institute fuer Kohlenforschung    #
                  #                Kaiser Wilhelm Platz 1               #
                  #                 D-45470 Muelheim/Ruhr               #
                  #                      Germany                        #
                  #                                                     #
                  #                  All rights reserved                #
                  #                        -***-                        #
                  #######################################################


                         Program Version 5.0.4 -  RELEASE  -


 With contributions from (in alphabetic order):
   Daniel Aravena         : Magnetic Suceptibility
   Michael Atanasov       : Ab Initio Ligand Field Theory (pilot matlab implementation)
   Alexander A. Auer      : GIAO ZORA, VPT2 properties, NMR spectrum
   Ute Becker             : Parallelization
   Giovanni Bistoni       : ED, misc. LED, open-shell LED, HFLD
   Martin Brehm           : Molecular dynamics
   Dmytro Bykov           : SCF Hessian
   Vijay G. Chilkuri      : MRCI spin determinant printing, contributions to CSF-ICE
   Dipayan Datta          : RHF DLPNO-CCSD density
   Achintya Kumar Dutta   : EOM-CC, STEOM-CC
   Dmitry Ganyushin       : Spin-Orbit,Spin-Spin,Magnetic field MRCI
   Miquel Garcia          : C-PCM and meta-GGA Hessian, CC/C-PCM, Gaussian charge scheme
   Yang Guo               : DLPNO-NEVPT2, F12-NEVPT2, CIM, IAO-localization
   Andreas Hansen         : Spin unrestricted coupled pair/coupled cluster methods
   Benjamin Helmich-Paris : MC-RPA, TRAH-SCF, COSX integrals
   Lee Huntington         : MR-EOM, pCC
   Robert Izsak           : Overlap fitted RIJCOSX, COSX-SCS-MP3, EOM
   Marcus Kettner         : VPT2
   Christian Kollmar      : KDIIS, OOCD, Brueckner-CCSD(T), CCSD density, CASPT2, CASPT2-K
   Simone Kossmann        : Meta GGA functionals, TD-DFT gradient, OOMP2, MP2 Hessian
   Martin Krupicka        : Initial AUTO-CI
   Lucas Lang             : DCDCAS
   Marvin Lechner         : AUTO-CI (C++ implementation), FIC-MRCC
   Dagmar Lenk            : GEPOL surface, SMD
   Dimitrios Liakos       : Extrapolation schemes; Compound Job, initial MDCI parallelization
   Dimitrios Manganas     : Further ROCIS development; embedding schemes
   Dimitrios Pantazis     : SARC Basis sets
   Anastasios Papadopoulos: AUTO-CI, single reference methods and gradients
   Taras Petrenko         : DFT Hessian,TD-DFT gradient, ASA, ECA, R-Raman, ABS, FL, XAS/XES, NRVS
   Peter Pinski           : DLPNO-MP2, DLPNO-MP2 Gradient
   Christoph Reimann      : Effective Core Potentials
   Marius Retegan         : Local ZFS, SOC
   Christoph Riplinger    : Optimizer, TS searches, QM/MM, DLPNO-CCSD(T), (RO)-DLPNO pert. Triples
   Tobias Risthaus        : Range-separated hybrids, TD-DFT gradient, RPA, STAB
   Michael Roemelt        : Original ROCIS implementation
   Masaaki Saitow         : Open-shell DLPNO-CCSD energy and density
   Barbara Sandhoefer     : DKH picture change effects
   Avijit Sen             : IP-ROCIS
   Kantharuban Sivalingam : CASSCF convergence, NEVPT2, FIC-MRCI
   Bernardo de Souza      : ESD, SOC TD-DFT
   Georgi Stoychev        : AutoAux, RI-MP2 NMR, DLPNO-MP2 response
   Willem Van den Heuvel  : Paramagnetic NMR
   Boris Wezisla          : Elementary symmetry handling
   Frank Wennmohs         : Technical directorship


 We gratefully acknowledge several colleagues who have allowed us to
 interface, adapt or use parts of their codes:
   Stefan Grimme, W. Hujo, H. Kruse, P. Pracht,  : VdW corrections, initial TS optimization,
                  C. Bannwarth, S. Ehlert          DFT functionals, gCP, sTDA/sTD-DF
   Ed Valeev, F. Pavosevic, A. Kumar             : LibInt (2-el integral package), F12 methods
   Garnet Chan, S. Sharma, J. Yang, R. Olivares  : DMRG
   Ulf Ekstrom                                   : XCFun DFT Library
   Mihaly Kallay                                 : mrcc  (arbitrary order and MRCC methods)
   Jiri Pittner, Ondrej Demel                    : Mk-CCSD
   Frank Weinhold                                : gennbo (NPA and NBO analysis)
   Christopher J. Cramer and Donald G. Truhlar   : smd solvation model
   Lars Goerigk                                  : TD-DFT with DH, B97 family of functionals
   V. Asgeirsson, H. Jonsson                     : NEB implementation
   FAccTs GmbH                                   : IRC, NEB, NEB-TS, DLPNO-Multilevel, CI-OPT
                                                   MM, QMMM, 2- and 3-layer-ONIOM, Crystal-QMMM,
                                                   LR-CPCM, SF, NACMEs, symmetry and pop. for TD-DFT,
                                                   nearIR, NL-DFT gradient (VV10), updates on ESD,
                                                   ML-optimized integration grids
   S Lehtola, MJT Oliveira, MAL Marques          : LibXC Library
   Liviu Ungur et al                             : ANISO software


 Your calculation uses the libint2 library for the computation of 2-el integrals
 For citations please refer to: http://libint.valeyev.net

 Your ORCA version has been built with support for libXC version: 5.1.0
 For citations please refer to: https://tddft.org/programs/libxc/

 This ORCA versions uses:
   CBLAS   interface :  Fast vector & matrix operations
   LAPACKE interface :  Fast linear algebra routines
   SCALAPACK package :  Parallel linear algebra routines
   Shared memory     :  Shared parallel matrices
   BLAS/LAPACK       :  OpenBLAS 0.3.15  USE64BITINT DYNAMIC_ARCH NO_AFFINITY SkylakeX SINGLE_THREADED
        Core in use  :  SkylakeX
   Copyright (c) 2011-2014, The OpenBLAS Project


Your calculation utilizes the atom-pairwise dispersion correction
with the Becke-Johnson damping scheme (D3BJ)
Cite in your paper:
S.Grimme, S.Ehrlich, L.Goerigk, J Comput Chem, (2011), 32, 1456–1465 
S.Grimme, J.Antony, S.Ehrlich and H.Krieg, J.Chem.Phys., 132, (2010), 154104 
   

================================================================================

----- Orbital basis set information -----
Your calculation utilizes the basis: def2-SVP
   F. Weigend and R. Ahlrichs, Phys. Chem. Chem. Phys. 7, 3297 (2005).

----- AuxJ basis set information -----
Your calculation utilizes the auxiliary basis: def2/J
   F. Weigend, Phys. Chem. Chem. Phys. 8, 1057 (2006).

================================================================================
                                        WARNINGS
                       Please study these warnings very carefully!
================================================================================


WARNING: your system is open-shell and RHF/RKS was chosen
  ===> : WILL SWITCH to UHF/UKS


INFO   : the flag for use of the SHARK integral package has been found!

================================================================================
                                       INPUT FILE
================================================================================
NAME = 16_1_orca.inp
|  1> ! EnGrad PBE0 RIJCOSX D3BJ def2-SVP def2/J 
|  2> %output 
|  3> xyzfile=True 
|  4> end 
|  5> %scf 
|  6> maxiter 250 
|  7> end
|  8> %output
|  9> Print[P_Hirshfeld] = 1
| 10> end
| 11> % maxcore
| 12> 4000
| 13> *xyz 0 2
| 14> O   -2.50155561   0.07574955   1.55323967 
| 15> O   -0.61839826  -0.29181068   0.90369296 
| 16> C   -0.73407617   0.21523146  -0.45213224 
| 17> C    0.14704245   0.90496849   0.51846099 
| 18> C    1.52653478   0.43364437   0.27690753 
| 19> C    1.49364140  -0.64145358  -0.62227456 
| 20> C    0.10714674  -0.66149304  -1.32010761 
| 21> H   -2.07421663   0.14277716   2.44630877 
| 22> H   -1.73035467   0.57170922  -0.69765140 
| 23> H   -0.15507357   1.79227471   1.08095134 
| 24> H    2.41618215   0.71642308   0.82844147 
| 25> H    2.18912410  -1.30920418  -0.76656638 
| 26> H    0.27018454  -0.28065616  -2.34678808 
| 27> H   -0.33632043  -1.66787170  -1.40205301 
| 28> *
| 29> 
| 30>                          ****END OF INPUT****
================================================================================

                     *******************************
                     * Energy+Gradient Calculation *
                     *******************************

---------------------------------
CARTESIAN COORDINATES (ANGSTROEM)
---------------------------------
  O     -2.501556    0.075750    1.553240
  O     -0.618398   -0.291811    0.903693
  C     -0.734076    0.215231   -0.452132
  C      0.147042    0.904968    0.518461
  C      1.526535    0.433644    0.276908
  C      1.493641   -0.641454   -0.622275
  C      0.107147   -0.661493   -1.320108
  H     -2.074217    0.142777    2.446309
  H     -1.730355    0.571709   -0.697651
  H     -0.155074    1.792275    1.080951
  H      2.416182    0.716423    0.828441
  H      2.189124   -1.309204   -0.766566
  H      0.270185   -0.280656   -2.346788
  H     -0.336320   -1.667872   -1.402053

----------------------------
CARTESIAN COORDINATES (A.U.)
----------------------------
  NO LB      ZA    FRAG     MASS         X           Y           Z
   0 O     8.0000    0    15.999   -4.727255    0.143146    2.935198
   1 O     8.0000    0    15.999   -1.168603   -0.551442    1.707732
   2 C     6.0000    0    12.011   -1.387203    0.406729   -0.854406
   3 C     6.0000    0    12.011    0.277870    1.710143    0.979749
   4 C     6.0000    0    12.011    2.884733    0.819469    0.523279
   5 C     6.0000    0    12.011    2.822573   -1.212172   -1.175928
   6 C     6.0000    0    12.011    0.202478   -1.250041   -2.494642
   7 H     1.0000    0     1.008   -3.919701    0.269810    4.622854
   8 H     1.0000    0     1.008   -3.269896    1.080374   -1.318370
   9 H     1.0000    0     1.008   -0.293047    3.386908    2.042702
  10 H     1.0000    0     1.008    4.565923    1.353843    1.565527
  11 H     1.0000    0     1.008    4.136845   -2.474037   -1.448601
  12 H     1.0000    0     1.008    0.510575   -0.530363   -4.434787
  13 H     1.0000    0     1.008   -0.635554   -3.151821   -2.649496

--------------------------------
INTERNAL COORDINATES (ANGSTROEM)
--------------------------------
 O      0   0   0     0.000000000000     0.00000000     0.00000000
 O      1   0   0     2.025658672138     0.00000000     0.00000000
 C      2   1   0     1.452148437162    99.32164682     0.00000000
 C      2   1   3     1.471931905008   114.82395305    62.11876975
 C      4   2   1     1.477664910817   105.59989756   171.82362317
 C      5   4   2     1.401943653475   109.11985763    52.34577821
 C      3   2   1     1.493212334578   107.02782225   215.38650211
 H      1   2   3     0.992312310568    84.28915691   207.97946219
 H      3   2   1     1.086244401994   113.49586831   357.78714831
 H      4   2   1     1.093152236166   112.43115421    29.60545524
 H      5   4   2     1.084262850396   126.84531865   243.46445641
 H      6   5   4     0.974888290584   127.11774621   199.31277308
 H      7   3   2     1.107109227166   114.83736875   191.19328189
 H      7   3   2     1.102803784339   110.63732082    69.01599528

---------------------------
INTERNAL COORDINATES (A.U.)
---------------------------
 O      0   0   0     0.000000000000     0.00000000     0.00000000
 O      1   0   0     3.827940131144     0.00000000     0.00000000
 C      2   1   0     2.744162852038    99.32164682     0.00000000
 C      2   1   3     2.781548188247   114.82395305    62.11876975
 C      4   2   1     2.792381999150   105.59989756   171.82362317
 C      5   4   2     2.649289560257   109.11985763    52.34577821
 C      3   2   1     2.821762372146   107.02782225   215.38650211
 H      1   2   3     1.875198506292    84.28915691   207.97946219
 H      3   2   1     2.052704434274   113.49586831   357.78714831
 H      4   2   1     2.065758349037   112.43115421    29.60545524
 H      5   4   2     2.048959844433   126.84531865   243.46445641
 H      6   5   4     1.842271880371   127.11774621   199.31277308
 H      7   3   2     2.092133239681   114.83736875   191.19328189
 H      7   3   2     2.083997131853   110.63732082    69.01599528

---------------------
BASIS SET INFORMATION
---------------------
There are 3 groups of distinct atoms

 Group   1 Type O   : 7s4p1d contracted to 3s2p1d pattern {511/31/1}
 Group   2 Type C   : 7s4p1d contracted to 3s2p1d pattern {511/31/1}
 Group   3 Type H   : 4s1p contracted to 2s1p pattern {31/1}

Atom   0O    basis set group =>   1
Atom   1O    basis set group =>   1
Atom   2C    basis set group =>   2
Atom   3C    basis set group =>   2
Atom   4C    basis set group =>   2
Atom   5C    basis set group =>   2
Atom   6C    basis set group =>   2
Atom   7H    basis set group =>   3
Atom   8H    basis set group =>   3
Atom   9H    basis set group =>   3
Atom  10H    basis set group =>   3
Atom  11H    basis set group =>   3
Atom  12H    basis set group =>   3
Atom  13H    basis set group =>   3
---------------------------------
AUXILIARY/J BASIS SET INFORMATION
---------------------------------
There are 3 groups of distinct atoms

 Group   1 Type O   : 12s5p4d2f1g contracted to 6s4p3d1f1g pattern {711111/2111/211/2/1}
 Group   2 Type C   : 12s5p4d2f1g contracted to 6s4p3d1f1g pattern {711111/2111/211/2/1}
 Group   3 Type H   : 5s2p1d contracted to 3s1p1d pattern {311/2/1}

Atom   0O    basis set group =>   1
Atom   1O    basis set group =>   1
Atom   2C    basis set group =>   2
Atom   3C    basis set group =>   2
Atom   4C    basis set group =>   2
Atom   5C    basis set group =>   2
Atom   6C    basis set group =>   2
Atom   7H    basis set group =>   3
Atom   8H    basis set group =>   3
Atom   9H    basis set group =>   3
Atom  10H    basis set group =>   3
Atom  11H    basis set group =>   3
Atom  12H    basis set group =>   3
Atom  13H    basis set group =>   3
------------------------------------------------------------------------------
                           ORCA GTO INTEGRAL CALCULATION
                           -- RI-GTO INTEGRALS CHOSEN --
------------------------------------------------------------------------------
------------------------------------------------------------------------------
                   ___                                                        
                  /   \      - P O W E R E D   B Y -                         
                 /     \                                                     
                 |  |  |   _    _      __       _____    __    __             
                 |  |  |  | |  | |    /  \     |  _  \  |  |  /  |          
                  \  \/   | |  | |   /    \    | | | |  |  | /  /          
                 / \  \   | |__| |  /  /\  \   | |_| |  |  |/  /          
                |  |  |   |  __  | /  /__\  \  |    /   |      \           
                |  |  |   | |  | | |   __   |  |    \   |  |\   \          
                \     /   | |  | | |  |  |  |  | |\  \  |  | \   \       
                 \___/    |_|  |_| |__|  |__|  |_| \__\ |__|  \__/        
                                                                              
                      - O R C A' S   B I G   F R I E N D -                    
                                      &                                       
                       - I N T E G R A L  F E E D E R -                       
                                                                              
 v1 FN, 2020, v2 2021                                                         
------------------------------------------------------------------------------


Reading SHARK input file 16_1_orca.SHARKINP.tmp ... ok
----------------------
SHARK INTEGRAL PACKAGE
----------------------

Number of atoms                             ...     14
Number of basis functions                   ...    133
Number of shells                            ...     63
Maximum angular momentum                    ...      2
Integral batch strategy                     ... SHARK/LIBINT Hybrid
RI-J (if used) integral strategy            ... SPLIT-RIJ (Revised 2003 algorithm where possible)
Printlevel                                  ...      1
Contraction scheme used                     ... SEGMENTED contraction
Coulomb Range Separation                    ... NOT USED
Exchange Range Separation                   ... NOT USED
Finite Nucleus Model                        ... NOT USED
Auxiliary Coulomb fitting basis             ... AVAILABLE
   # of basis functions in Aux-J            ...    420
   # of shells in Aux-J                     ...    140
   Maximum angular momentum in Aux-J        ...      4
Auxiliary J/K fitting basis                 ... NOT available
Auxiliary Correlation fitting basis         ... NOT available
Auxiliary 'external' fitting basis          ... NOT available
Integral threshold                          ...     2.500000e-11
Primitive cut-off                           ...     2.500000e-12
Primitive pair pre-selection threshold      ...     2.500000e-12

Calculating pre-screening integrals         ... done (  0.0 sec) Dimension = 63
Organizing shell pair data                  ... done (  0.0 sec)
Shell pair information
Total number of shell pairs                 ...      2016
Shell pairs after pre-screening             ...      1945
Total number of primitive shell pairs       ...      7252
Primitive shell pairs kept                  ...      5335
          la=0 lb=0:    606 shell pairs
          la=1 lb=0:    709 shell pairs
          la=1 lb=1:    225 shell pairs
          la=2 lb=0:    236 shell pairs
          la=2 lb=1:    142 shell pairs
          la=2 lb=2:     27 shell pairs

Calculating one electron integrals          ... done (  0.0 sec)
Calculating RI/J V-Matrix + Cholesky decomp.... done (  0.0 sec)
Calculating Nuclear repulsion               ... done (  0.0 sec) ENN=    299.104713355094 Eh

SHARK setup successfully completed in   0.1 seconds

Maximum memory used throughout the entire GTOINT-calculation: 16.8 MB
-------------------------------------------------------------------------------
                                 ORCA SCF
-------------------------------------------------------------------------------

------------
SCF SETTINGS
------------
Hamiltonian:
 Density Functional     Method          .... DFT(GTOs)
 Exchange Functional    Exchange        .... PBE
   PBE kappa parameter   XKappa         ....  0.804000
   PBE mue parameter    XMuePBE         ....  0.219520
 Correlation Functional Correlation     .... PBE
   PBE beta parameter  CBetaPBE         ....  0.066725
 LDA part of GGA corr.  LDAOpt          .... PW91-LDA
 Gradients option       PostSCFGGA      .... off
 Hybrid DFT is turned on
   Fraction HF Exchange ScalHFX         ....  0.250000
   Scaling of DF-GGA-X  ScalDFX         ....  0.750000
   Scaling of DF-GGA-C  ScalDFC         ....  1.000000
   Scaling of DF-LDA-C  ScalLDAC        ....  1.000000
   Perturbative correction              ....  0.000000
   Density functional embedding theory  .... OFF
   NL short-range parameter             ....  6.900000
 RI-approximation to the Coulomb term is turned on
   Number of AuxJ basis functions       .... 420
   RIJ-COSX (HFX calculated with COS-X)).... on


General Settings:
 Integral files         IntName         .... 16_1_orca
 Hartree-Fock type      HFTyp           .... UHF
 Total Charge           Charge          ....    0
 Multiplicity           Mult            ....    2
 Number of Electrons    NEL             ....   53
 Basis Dimension        Dim             ....  133
 Nuclear Repulsion      ENuc            ....    299.1047133551 Eh

Convergence Acceleration:
 DIIS                   CNVDIIS         .... on
   Start iteration      DIISMaxIt       ....    12
   Startup error        DIISStart       ....  0.200000
   # of expansion vecs  DIISMaxEq       ....     5
   Bias factor          DIISBfac        ....   1.050
   Max. coefficient     DIISMaxC        ....  10.000
 Trust-Rad. Augm. Hess. CNVTRAH         .... auto
   Auto Start mean grad. ratio tolernc. ....  1.125000
   Auto Start start iteration           ....    20
   Auto Start num. interpolation iter.  ....    10
   Max. Number of Micro iterations      ....    16
   Max. Number of Macro iterations      .... Maxiter - #DIIS iter
   Number of Davidson start vectors     ....     2
   Converg. threshold I  (grad. norm)   ....   1.000e-05
   Converg. threshold II (energy diff.) ....   1.000e-08
   Grad. Scal. Fac. for Micro threshold ....   0.100
   Minimum threshold for Micro iter.    ....   0.010
   NR start threshold (gradient norm)   ....   0.001
   Initial trust radius                 ....   0.400
   Minimum AH scaling param. (alpha)    ....   1.000
   Maximum AH scaling param. (alpha)    .... 1000.000
   Orbital update algorithm             .... Taylor
   White noise on init. David. guess    .... on
   Maximum white noise                  ....   0.010
   Quad. conv. algorithm                .... NR
 SOSCF                  CNVSOSCF        .... off
 Level Shifting         CNVShift        .... on
   Level shift para.    LevelShift      ....    0.2500
   Turn off err/grad.   ShiftErr        ....    0.0010
 Zerner damping         CNVZerner       .... off
 Static damping         CNVDamp         .... on
   Fraction old density DampFac         ....    0.7000
   Max. Damping (<1)    DampMax         ....    0.9800
   Min. Damping (>=0)   DampMin         ....    0.0000
   Turn off err/grad.   DampErr         ....    0.1000
 Fernandez-Rico         CNVRico         .... off

SCF Procedure:
 Maximum # iterations   MaxIter         ....   250
 SCF integral mode      SCFMode         .... Direct
   Integral package                     .... SHARK and LIBINT hybrid scheme
 Reset frequency        DirectResetFreq ....    20
 Integral Threshold     Thresh          ....  2.500e-11 Eh
 Primitive CutOff       TCut            ....  2.500e-12 Eh

Convergence Tolerance:
 Convergence Check Mode ConvCheckMode   .... Total+1el-Energy
 Convergence forced     ConvForced      .... 0
 Energy Change          TolE            ....  1.000e-08 Eh
 1-El. energy change                    ....  1.000e-05 Eh
 DIIS Error             TolErr          ....  5.000e-07


Diagonalization of the overlap matrix:
Smallest eigenvalue                        ... 8.022e-04
Time for diagonalization                   ...    0.003 sec
Threshold for overlap eigenvalues          ... 1.000e-08
Number of eigenvalues below threshold      ... 0
Time for construction of square roots      ...    0.001 sec
Total time needed                          ...    0.003 sec

Time for model grid setup =    0.117 sec

------------------------------
INITIAL GUESS: MODEL POTENTIAL
------------------------------
Loading Hartree-Fock densities                     ... done
Calculating cut-offs                               ... done
Initializing the effective Hamiltonian             ... done
Setting up the integral package (SHARK)            ... done
Starting the Coulomb interaction                   ... done (   0.1 sec)
Reading the grid                                   ... done
Mapping shells                                     ... done
Starting the XC term evaluation                    ... done (   0.1 sec)
  promolecular density results
     # of electrons  =     52.998903234
     EX              =    -43.858847385
     EC              =     -1.752998752
     EX+EC           =    -45.611846137
Transforming the Hamiltonian                       ... done (   0.0 sec)
Diagonalizing the Hamiltonian                      ... done (   0.0 sec)
Back transforming the eigenvectors                 ... done (   0.0 sec)
Now organizing SCF variables                       ... done
                      ------------------
                      INITIAL GUESS DONE (   0.3 sec)
                      ------------------
-------------------
DFT GRID GENERATION
-------------------

General Integration Accuracy     IntAcc      ... 4.388
Radial Grid Type                 RadialGrid  ... OptM3 with GC (2021)
Angular Grid (max. ang.)         AngularGrid ... 4 (Lebedev-302)
Angular grid pruning method      GridPruning ... 4 (adaptive)
Weight generation scheme         WeightScheme... Becke
Basis function cutoff            BFCut       ... 1.0000e-11
Integration weight cutoff        WCut        ... 1.0000e-14
Angular grids for H and He will be reduced by one unit
Partially contracted basis set               ... off
Rotationally invariant grid construction     ... off

Total number of grid points                  ...    64882
Total number of batches                      ...     1018
Average number of points per batch           ...       63
Average number of grid points per atom       ...     4634
Time for grid setup =    0.479 sec

--------------------
COSX GRID GENERATION
--------------------

GRIDX 1
-------
General Integration Accuracy     IntAcc      ... 3.816
Radial Grid Type                 RadialGrid  ... OptM3 with GC (2021)
Angular Grid (max. ang.)         AngularGrid ... 1 (Lebedev-50)
Angular grid pruning method      GridPruning ... 4 (adaptive)
Weight generation scheme         WeightScheme... Becke
Basis function cutoff            BFCut       ... 1.0000e-11
Integration weight cutoff        WCut        ... 1.0000e-14
Angular grids for H and He will be reduced by one unit
Partially contracted basis set               ... on
Rotationally invariant grid construction     ... off

Total number of grid points                  ...     8298
Total number of batches                      ...      136
Average number of points per batch           ...       61
Average number of grid points per atom       ...      593
UseSFitting                                  ... on

GRIDX 2
-------
General Integration Accuracy     IntAcc      ... 4.020
Radial Grid Type                 RadialGrid  ... OptM3 with GC (2021)
Angular Grid (max. ang.)         AngularGrid ... 2 (Lebedev-110)
Angular grid pruning method      GridPruning ... 4 (adaptive)
Weight generation scheme         WeightScheme... Becke
Basis function cutoff            BFCut       ... 1.0000e-11
Integration weight cutoff        WCut        ... 1.0000e-14
Angular grids for H and He will be reduced by one unit
Partially contracted basis set               ... on
Rotationally invariant grid construction     ... off

Total number of grid points                  ...    18049
Total number of batches                      ...      289
Average number of points per batch           ...       62
Average number of grid points per atom       ...     1289
UseSFitting                                  ... on

GRIDX 3
-------
General Integration Accuracy     IntAcc      ... 4.338
Radial Grid Type                 RadialGrid  ... OptM3 with GC (2021)
Angular Grid (max. ang.)         AngularGrid ... 3 (Lebedev-194)
Angular grid pruning method      GridPruning ... 4 (adaptive)
Weight generation scheme         WeightScheme... Becke
Basis function cutoff            BFCut       ... 1.0000e-11
Integration weight cutoff        WCut        ... 1.0000e-14
Angular grids for H and He will be reduced by one unit
Partially contracted basis set               ... on
Rotationally invariant grid construction     ... off

Total number of grid points                  ...    39646
Total number of batches                      ...      627
Average number of points per batch           ...       63
Average number of grid points per atom       ...     2832
UseSFitting                                  ... on

Time for X-Grid setup             =    0.532 sec

--------------
SCF ITERATIONS
--------------
ITER       Energy         Delta-E        Max-DP      RMS-DP      [F,P]     Damp
               ***  Starting incremental Fock matrix formation  ***
  0   -344.1542823654   0.000000000000 0.05265068  0.00148194  0.1532297 0.7000
  1   -344.2409526572  -0.086670291783 0.03904434  0.00099590  0.0597156 0.7000
                               ***Turning on DIIS***
  2   -344.2760528374  -0.035100180176 0.07920867  0.00163936  0.0223252 0.0000
  3   -344.3386167480  -0.062563910576 0.02876773  0.00089698  0.0525716 0.0000
  4   -344.3517340647  -0.013117316722 0.01186838  0.00034962  0.0107970 0.0000
  5   -344.3529186736  -0.001184608877 0.00689727  0.00020589  0.0068745 0.0000
  6   -344.3535111332  -0.000592459643 0.00449532  0.00011871  0.0038025 0.0000
  7   -344.3537111858  -0.000200052550 0.00171362  0.00005356  0.0020427 0.0000
  8   -344.3537754513  -0.000064265555 0.00149969  0.00003615  0.0011966 0.0000
  9   -344.3538008396  -0.000025388227 0.00156747  0.00004430  0.0006118 0.0000
               *** Restarting incremental Fock matrix formation ***
                                   *** Resetting DIIS ***
 10   -344.3538429590  -0.000042119492 0.00055564  0.00001182  0.0002693 0.0000
 11   -344.3538439530  -0.000000993914 0.00020024  0.00000575  0.0002808 0.0000
 12   -344.3538448277  -0.000000874780 0.00043518  0.00000626  0.0001941 0.0000
 13   -344.3538455443  -0.000000716509 0.00061956  0.00000869  0.0001516 0.0000
 14   -344.3538462668  -0.000000722584 0.00066485  0.00000933  0.0000910 0.0000
 15   -344.3538466435  -0.000000376636 0.00013873  0.00000205  0.0000273 0.0000
 16   -344.3538466782  -0.000000034682 0.00009512  0.00000141  0.0000168 0.0000
 17   -344.3538466840  -0.000000005798 0.00002441  0.00000041  0.0000104 0.0000
 18   -344.3538466857  -0.000000001747 0.00001375  0.00000023  0.0000037 0.0000
 19   -344.3538466891  -0.000000003371 0.00000391  0.00000008  0.0000021 0.0000
 20   -344.3538466887   0.000000000355 0.00000146  0.00000004  0.0000015 0.0000
                            ***DIIS convergence achieved***

               *****************************************************
               *                     SUCCESS                       *
               *           SCF CONVERGED AFTER  21 CYCLES          *
               *****************************************************

Old exchange energy                            =    -11.177671652 Eh
New exchange energy                            =    -11.177654385 Eh
Exchange energy change after final integration =      0.000017267 Eh
Total energy after final integration           =   -344.353829421 Eh
Final COS-X integration done in                =     4.829 sec

----------------
TOTAL SCF ENERGY
----------------

Total Energy       :         -344.35382942 Eh           -9370.34408 eV

Components:
Nuclear Repulsion  :          299.10471336 Eh            8139.05303 eV
Electronic Energy  :         -643.45854278 Eh          -17509.39711 eV
One Electron Energy:        -1061.49738846 Eh          -28884.81242 eV
Two Electron Energy:          418.03884569 Eh           11375.41531 eV
Max COSX asymmetry :            0.00000051 Eh               0.00001 eV

Virial components:
Potential Energy   :         -685.85615493 Eh          -18663.09479 eV
Kinetic Energy     :          341.50232551 Eh            9292.75071 eV
Virial Ratio       :            2.00834988


DFT components:
N(Alpha)           :       27.000009466949 electrons
N(Beta)            :       26.000008725193 electrons
N(Total)           :       53.000018192142 electrons
E(X)               :      -33.463101482742 Eh       
E(C)               :       -1.768761839324 Eh       
E(XC)              :      -35.231863322066 Eh       
DFET-embed. en.    :        0.000000000000 Eh       

---------------
SCF CONVERGENCE
---------------

  Last Energy change         ...    9.9340e-10  Tolerance :   1.0000e-08
  Last MAX-Density change    ...    0.0000e+00  Tolerance :   1.0000e-07
  Last RMS-Density change    ...    0.0000e+00  Tolerance :   5.0000e-09
  Last DIIS Error            ...    8.0379e-07  Tolerance :   5.0000e-07

             **** THE GBW FILE WAS UPDATED (16_1_orca.gbw) ****
             **** DENSITY 16_1_orca.scfp WAS UPDATED ****
             **** ENERGY FILE WAS UPDATED (16_1_orca.en.tmp) ****
----------------------
UHF SPIN CONTAMINATION
----------------------

Warning: in a DFT calculation there is little theoretical justification to 
         calculate <S**2> as in Hartree-Fock theory. We will do it anyways
         but you should keep in mind that the values have only limited relevance

Expectation value of <S**2>     :     0.753749
Ideal value S*(S+1) for S=0.5   :     0.750000
Deviation                       :     0.003749

             **** THE GBW FILE WAS UPDATED (16_1_orca.gbw) ****
             **** DENSITY 16_1_orca.scfp WAS UPDATED ****
----------------
ORBITAL ENERGIES
----------------
                 SPIN UP ORBITALS
  NO   OCC          E(Eh)            E(eV) 
   0   1.0000     -19.240937      -523.5725 
   1   1.0000     -19.195811      -522.3446 
   2   1.0000     -10.300001      -280.2773 
   3   1.0000     -10.295317      -280.1498 
   4   1.0000     -10.253054      -278.9998 
   5   1.0000     -10.252133      -278.9747 
   6   1.0000     -10.251339      -278.9531 
   7   1.0000      -1.106856       -30.1191 
   8   1.0000      -0.947095       -25.7718 
   9   1.0000      -0.838558       -22.8183 
  10   1.0000      -0.746386       -20.3102 
  11   1.0000      -0.694117       -18.8879 
  12   1.0000      -0.602198       -16.3866 
  13   1.0000      -0.586715       -15.9653 
  14   1.0000      -0.560946       -15.2641 
  15   1.0000      -0.480301       -13.0697 
  16   1.0000      -0.464959       -12.6522 
  17   1.0000      -0.440331       -11.9820 
  18   1.0000      -0.423921       -11.5355 
  19   1.0000      -0.419475       -11.4145 
  20   1.0000      -0.403102       -10.9690 
  21   1.0000      -0.375912       -10.2291 
  22   1.0000      -0.367422        -9.9981 
  23   1.0000      -0.332489        -9.0475 
  24   1.0000      -0.285982        -7.7820 
  25   1.0000      -0.277336        -7.5467 
  26   1.0000      -0.245094        -6.6693 
  27   0.0000      -0.024022        -0.6537 
  28   0.0000       0.076359         2.0778 
  29   0.0000       0.093260         2.5377 
  30   0.0000       0.103238         2.8093 
  31   0.0000       0.111593         3.0366 
  32   0.0000       0.127993         3.4829 
  33   0.0000       0.141282         3.8445 
  34   0.0000       0.145128         3.9491 
  35   0.0000       0.147483         4.0132 
  36   0.0000       0.163040         4.4365 
  37   0.0000       0.187924         5.1137 
  38   0.0000       0.209828         5.7097 
  39   0.0000       0.294271         8.0075 
  40   0.0000       0.316373         8.6089 
  41   0.0000       0.375861        10.2277 
  42   0.0000       0.399799        10.8791 
  43   0.0000       0.455929        12.4065 
  44   0.0000       0.474483        12.9113 
  45   0.0000       0.480206        13.0671 
  46   0.0000       0.503962        13.7135 
  47   0.0000       0.521504        14.1909 
  48   0.0000       0.543254        14.7827 
  49   0.0000       0.560710        15.2577 
  50   0.0000       0.562526        15.3071 
  51   0.0000       0.592404        16.1201 
  52   0.0000       0.613452        16.6929 
  53   0.0000       0.639827        17.4106 
  54   0.0000       0.645849        17.5745 
  55   0.0000       0.656759        17.8713 
  56   0.0000       0.667551        18.1650 
  57   0.0000       0.679450        18.4888 
  58   0.0000       0.687030        18.6950 
  59   0.0000       0.698321        19.0023 
  60   0.0000       0.707139        19.2422 
  61   0.0000       0.740163        20.1409 
  62   0.0000       0.760782        20.7019 
  63   0.0000       0.780105        21.2277 
  64   0.0000       0.791854        21.5475 
  65   0.0000       0.900907        24.5149 
  66   0.0000       0.947839        25.7920 
  67   0.0000       0.968437        26.3525 
  68   0.0000       1.005951        27.3733 
  69   0.0000       1.013820        27.5875 
  70   0.0000       1.054890        28.7050 
  71   0.0000       1.068115        29.0649 
  72   0.0000       1.114723        30.3332 
  73   0.0000       1.140425        31.0325 
  74   0.0000       1.205602        32.8061 
  75   0.0000       1.221014        33.2255 
  76   0.0000       1.288430        35.0600 
  77   0.0000       1.346813        36.6486 
  78   0.0000       1.455129        39.5961 
  79   0.0000       1.480801        40.2946 
  80   0.0000       1.510049        41.0905 
  81   0.0000       1.525009        41.4976 
  82   0.0000       1.542838        41.9828 
  83   0.0000       1.565284        42.5935 
  84   0.0000       1.604197        43.6524 
  85   0.0000       1.629145        44.3313 
  86   0.0000       1.665379        45.3173 
  87   0.0000       1.679853        45.7111 
  88   0.0000       1.707504        46.4635 
  89   0.0000       1.764620        48.0177 
  90   0.0000       1.777359        48.3644 
  91   0.0000       1.789134        48.6848 
  92   0.0000       1.806649        49.1614 
  93   0.0000       1.851602        50.3847 
  94   0.0000       1.864626        50.7390 
  95   0.0000       1.883753        51.2595 
  96   0.0000       1.937630        52.7256 
  97   0.0000       1.951545        53.1042 
  98   0.0000       2.006538        54.6007 
  99   0.0000       2.031646        55.2839 
 100   0.0000       2.047534        55.7162 
 101   0.0000       2.076800        56.5126 
 102   0.0000       2.114751        57.5453 
 103   0.0000       2.169384        59.0319 
 104   0.0000       2.184891        59.4539 
 105   0.0000       2.210650        60.1548 
 106   0.0000       2.223297        60.4990 
 107   0.0000       2.256706        61.4081 
 108   0.0000       2.300940        62.6118 
 109   0.0000       2.368861        64.4600 
 110   0.0000       2.436484        66.3001 
 111   0.0000       2.483986        67.5927 
 112   0.0000       2.547084        69.3097 
 113   0.0000       2.566354        69.8340 
 114   0.0000       2.625476        71.4428 
 115   0.0000       2.677719        72.8644 
 116   0.0000       2.730135        74.2907 
 117   0.0000       2.735750        74.4436 
 118   0.0000       2.762834        75.1805 
 119   0.0000       2.815415        76.6113 
 120   0.0000       2.846370        77.4537 
 121   0.0000       2.872237        78.1575 
 122   0.0000       2.900693        78.9319 
 123   0.0000       2.934674        79.8565 
 124   0.0000       2.999567        81.6224 
 125   0.0000       3.014488        82.0284 
 126   0.0000       3.081497        83.8518 
 127   0.0000       3.101522        84.3967 
 128   0.0000       3.178556        86.4929 
 129   0.0000       3.321435        90.3808 
 130   0.0000       3.408054        92.7379 
 131   0.0000       3.462625        94.2228 
 132   0.0000       3.735990       101.6615 

                 SPIN DOWN ORBITALS
  NO   OCC          E(Eh)            E(eV) 
   0   1.0000     -19.234397      -523.3946 
   1   1.0000     -19.171146      -521.6734 
   2   1.0000     -10.300021      -280.2778 
   3   1.0000     -10.295520      -280.1553 
   4   1.0000     -10.253051      -278.9997 
   5   1.0000     -10.252264      -278.9783 
   6   1.0000     -10.250851      -278.9398 
   7   1.0000      -1.098026       -29.8788 
   8   1.0000      -0.884590       -24.0709 
   9   1.0000      -0.834480       -22.7074 
  10   1.0000      -0.746323       -20.3085 
  11   1.0000      -0.690467       -18.7886 
  12   1.0000      -0.601201       -16.3595 
  13   1.0000      -0.585843       -15.9416 
  14   1.0000      -0.556609       -15.1461 
  15   1.0000      -0.472950       -12.8696 
  16   1.0000      -0.463235       -12.6053 
  17   1.0000      -0.432972       -11.7818 
  18   1.0000      -0.418340       -11.3836 
  19   1.0000      -0.417131       -11.3507 
  20   1.0000      -0.385512       -10.4903 
  21   1.0000      -0.374869       -10.2007 
  22   1.0000      -0.338089        -9.1999 
  23   1.0000      -0.301278        -8.1982 
  24   1.0000      -0.260095        -7.0776 
  25   1.0000      -0.255650        -6.9566 
  26   0.0000      -0.052246        -1.4217 
  27   0.0000      -0.019778        -0.5382 
  28   0.0000       0.078896         2.1469 
  29   0.0000       0.095467         2.5978 
  30   0.0000       0.104240         2.8365 
  31   0.0000       0.113045         3.0761 
  32   0.0000       0.129632         3.5275 
  33   0.0000       0.142073         3.8660 
  34   0.0000       0.145921         3.9707 
  35   0.0000       0.148228         4.0335 
  36   0.0000       0.167328         4.5532 
  37   0.0000       0.188859         5.1391 
  38   0.0000       0.210478         5.7274 
  39   0.0000       0.294724         8.0198 
  40   0.0000       0.316593         8.6149 
  41   0.0000       0.376025        10.2322 
  42   0.0000       0.400145        10.8885 
  43   0.0000       0.456759        12.4290 
  44   0.0000       0.475574        12.9410 
  45   0.0000       0.480672        13.0797 
  46   0.0000       0.504754        13.7350 
  47   0.0000       0.521921        14.2022 
  48   0.0000       0.545200        14.8356 
  49   0.0000       0.562277        15.3003 
  50   0.0000       0.564849        15.3703 
  51   0.0000       0.592505        16.1229 
  52   0.0000       0.613838        16.7034 
  53   0.0000       0.641452        17.4548 
  54   0.0000       0.651760        17.7353 
  55   0.0000       0.659409        17.9434 
  56   0.0000       0.669604        18.2208 
  57   0.0000       0.679860        18.4999 
  58   0.0000       0.687358        18.7040 
  59   0.0000       0.699205        19.0263 
  60   0.0000       0.707507        19.2522 
  61   0.0000       0.740877        20.1603 
  62   0.0000       0.761455        20.7202 
  63   0.0000       0.780830        21.2475 
  64   0.0000       0.792361        21.5612 
  65   0.0000       0.905930        24.6516 
  66   0.0000       0.961389        26.1607 
  67   0.0000       0.975680        26.5496 
  68   0.0000       1.012372        27.5480 
  69   0.0000       1.045355        28.4456 
  70   0.0000       1.073556        29.2129 
  71   0.0000       1.080705        29.4075 
  72   0.0000       1.131460        30.7886 
  73   0.0000       1.153873        31.3985 
  74   0.0000       1.213144        33.0113 
  75   0.0000       1.225539        33.3486 
  76   0.0000       1.296956        35.2920 
  77   0.0000       1.347768        36.6746 
  78   0.0000       1.457617        39.6638 
  79   0.0000       1.481244        40.3067 
  80   0.0000       1.519677        41.3525 
  81   0.0000       1.526955        41.5506 
  82   0.0000       1.547789        42.1175 
  83   0.0000       1.566894        42.6374 
  84   0.0000       1.609014        43.7835 
  85   0.0000       1.631049        44.3831 
  86   0.0000       1.668253        45.3955 
  87   0.0000       1.681669        45.7605 
  88   0.0000       1.707947        46.4756 
  89   0.0000       1.765462        48.0407 
  90   0.0000       1.778374        48.3920 
  91   0.0000       1.793090        48.7925 
  92   0.0000       1.809364        49.2353 
  93   0.0000       1.852324        50.4043 
  94   0.0000       1.866209        50.7821 
  95   0.0000       1.885190        51.2986 
  96   0.0000       1.938267        52.7429 
  97   0.0000       1.952429        53.1283 
  98   0.0000       2.007080        54.6154 
  99   0.0000       2.032426        55.3051 
 100   0.0000       2.048505        55.7427 
 101   0.0000       2.077696        56.5370 
 102   0.0000       2.116083        57.5816 
 103   0.0000       2.169712        59.0409 
 104   0.0000       2.187736        59.5313 
 105   0.0000       2.220317        60.4179 
 106   0.0000       2.226208        60.5782 
 107   0.0000       2.258014        61.4437 
 108   0.0000       2.302252        62.6475 
 109   0.0000       2.369305        64.4721 
 110   0.0000       2.437205        66.3197 
 111   0.0000       2.484649        67.6107 
 112   0.0000       2.548471        69.3474 
 113   0.0000       2.567030        69.8524 
 114   0.0000       2.632106        71.6232 
 115   0.0000       2.732036        74.3425 
 116   0.0000       2.745323        74.7041 
 117   0.0000       2.748970        74.8033 
 118   0.0000       2.773322        75.4659 
 119   0.0000       2.828050        76.9551 
 120   0.0000       2.870858        78.1200 
 121   0.0000       2.875678        78.2512 
 122   0.0000       2.930765        79.7502 
 123   0.0000       2.950160        80.2779 
 124   0.0000       3.010262        81.9134 
 125   0.0000       3.065164        83.4073 
 126   0.0000       3.086470        83.9871 
 127   0.0000       3.107507        84.5596 
 128   0.0000       3.179643        86.5225 
 129   0.0000       3.330313        90.6224 
 130   0.0000       3.411790        92.8395 
 131   0.0000       3.463894        94.2574 
 132   0.0000       3.757960       102.2593 

                    ********************************
                    * MULLIKEN POPULATION ANALYSIS *
                    ********************************

--------------------------------------------
MULLIKEN ATOMIC CHARGES AND SPIN POPULATIONS
--------------------------------------------
   0 O :   -0.284914    0.870293
   1 O :   -0.314921    0.145939
   2 C :    0.036965   -0.011313
   3 C :    0.071658   -0.000793
   4 C :    0.023731   -0.018043
   5 C :   -0.062956    0.034400
   6 C :    0.074668   -0.001563
   7 H :    0.171387   -0.023864
   8 H :    0.072445    0.002299
   9 H :    0.051870    0.002662
  10 H :    0.035927    0.001056
  11 H :   -0.020431   -0.001526
  12 H :    0.070772    0.000172
  13 H :    0.073799    0.000281
Sum of atomic charges         :    0.0000000
Sum of atomic spin populations:    1.0000000

-----------------------------------------------------
MULLIKEN REDUCED ORBITAL CHARGES AND SPIN POPULATIONS
-----------------------------------------------------
CHARGE
  0 O s       :     3.868729  s :     3.868729
      pz      :     1.287131  p :     4.409628
      px      :     1.197471
      py      :     1.925026
      dz2     :     0.002610  d :     0.006557
      dxz     :     0.002482
      dyz     :     0.000566
      dx2y2   :     0.000601
      dxy     :     0.000298
  1 O s       :     3.890325  s :     3.890325
      pz      :     1.353363  p :     4.405798
      px      :     1.588480
      py      :     1.463955
      dz2     :     0.005364  d :     0.018798
      dxz     :     0.002546
      dyz     :     0.004781
      dx2y2   :     0.002667
      dxy     :     0.003440
  2 C s       :     3.200689  s :     3.200689
      pz      :     0.757014  p :     2.693781
      px      :     0.997491
      py      :     0.939276
      dz2     :     0.020197  d :     0.068565
      dxz     :     0.015281
      dyz     :     0.017314
      dx2y2   :     0.007015
      dxy     :     0.008757
  3 C s       :     3.184468  s :     3.184468
      pz      :     0.948034  p :     2.677165
      px      :     0.909804
      py      :     0.819327
      dz2     :     0.008266  d :     0.066709
      dxz     :     0.011169
      dyz     :     0.012285
      dx2y2   :     0.016449
      dxy     :     0.018541
  4 C s       :     3.165982  s :     3.165982
      pz      :     0.977800  p :     2.778416
      px      :     0.843204
      py      :     0.957411
      dz2     :     0.005197  d :     0.031871
      dxz     :     0.007759
      dyz     :     0.004450
      dx2y2   :     0.007412
      dxy     :     0.007054
  5 C s       :     3.211419  s :     3.211419
      pz      :     0.970842  p :     2.819426
      px      :     0.936787
      py      :     0.911797
      dz2     :     0.006952  d :     0.032111
      dxz     :     0.005572
      dyz     :     0.004423
      dx2y2   :     0.006404
      dxy     :     0.008759
  6 C s       :     2.962470  s :     2.962470
      pz      :     0.974166  p :     2.928707
      px      :     0.934431
      py      :     1.020109
      dz2     :     0.007587  d :     0.034155
      dxz     :     0.006985
      dyz     :     0.005275
      dx2y2   :     0.007295
      dxy     :     0.007014
  7 H s       :     0.764578  s :     0.764578
      pz      :     0.028598  p :     0.064035
      px      :     0.015993
      py      :     0.019444
  8 H s       :     0.904499  s :     0.904499
      pz      :     0.002647  p :     0.023056
      px      :     0.015180
      py      :     0.005229
  9 H s       :     0.925719  s :     0.925719
      pz      :     0.007229  p :     0.022412
      px      :     0.003620
      py      :     0.011563
 10 H s       :     0.939775  s :     0.939775
      pz      :     0.007637  p :     0.024298
      px      :     0.011710
      py      :     0.004950
 11 H s       :     0.990944  s :     0.990944
      pz      :     0.006364  p :     0.029487
      px      :     0.011546
      py      :     0.011577
 12 H s       :     0.906009  s :     0.906009
      pz      :     0.012915  p :     0.023219
      px      :     0.004666
      py      :     0.005637
 13 H s       :     0.903093  s :     0.903093
      pz      :     0.004395  p :     0.023109
      px      :     0.005590
      py      :     0.013123

SPIN
  0 O s       :     0.011429  s :     0.011429
      pz      :     0.150969  p :     0.858610
      px      :     0.670165
      py      :     0.037475
      dz2     :    -0.000145  d :     0.000255
      dxz     :     0.000285
      dyz     :     0.000027
      dx2y2   :     0.000048
      dxy     :     0.000040
  1 O s       :     0.010123  s :     0.010123
      pz      :     0.019783  p :     0.135318
      px      :     0.092721
      py      :     0.022814
      dz2     :    -0.000126  d :     0.000498
      dxz     :     0.000370
      dyz     :     0.000020
      dx2y2   :     0.000316
      dxy     :    -0.000083
  2 C s       :    -0.000906  s :    -0.000906
      pz      :    -0.006677  p :    -0.011048
      px      :    -0.001809
      py      :    -0.002562
      dz2     :     0.000170  d :     0.000641
      dxz     :     0.000372
      dyz     :    -0.000022
      dx2y2   :    -0.000001
      dxy     :     0.000123
  3 C s       :     0.000495  s :     0.000495
      pz      :    -0.000671  p :    -0.002038
      px      :    -0.000394
      py      :    -0.000973
      dz2     :     0.000018  d :     0.000750
      dxz     :    -0.000014
      dyz     :    -0.000029
      dx2y2   :     0.000888
      dxy     :    -0.000112
  4 C s       :    -0.002948  s :    -0.002948
      pz      :    -0.009132  p :    -0.015355
      px      :     0.001986
      py      :    -0.008209
      dz2     :     0.000064  d :     0.000261
      dxz     :     0.000042
      dyz     :     0.000028
      dx2y2   :     0.000081
      dxy     :     0.000046
  5 C s       :     0.005056  s :     0.005056
      pz      :     0.013980  p :     0.029492
      px      :     0.004587
      py      :     0.010924
      dz2     :    -0.000049  d :    -0.000147
      dxz     :    -0.000016
      dyz     :    -0.000044
      dx2y2   :    -0.000036
      dxy     :    -0.000002
  6 C s       :    -0.000964  s :    -0.000964
      pz      :    -0.000171  p :    -0.000667
      px      :    -0.000920
      py      :     0.000424
      dz2     :    -0.000006  d :     0.000068
      dxz     :     0.000031
      dyz     :     0.000006
      dx2y2   :    -0.000010
      dxy     :     0.000048
  7 H s       :    -0.028728  s :    -0.028728
      pz      :     0.001667  p :     0.004864
      px      :     0.003646
      py      :    -0.000448
  8 H s       :     0.002371  s :     0.002371
      pz      :    -0.000046  p :    -0.000072
      px      :    -0.000011
      py      :    -0.000015
  9 H s       :     0.002717  s :     0.002717
      pz      :    -0.000032  p :    -0.000056
      px      :    -0.000013
      py      :    -0.000011
 10 H s       :     0.001124  s :     0.001124
      pz      :    -0.000012  p :    -0.000068
      px      :    -0.000008
      py      :    -0.000049
 11 H s       :    -0.001815  s :    -0.001815
      pz      :     0.000137  p :     0.000288
      px      :     0.000060
      py      :     0.000091
 12 H s       :     0.000158  s :     0.000158
      pz      :    -0.000003  p :     0.000014
      px      :     0.000014
      py      :     0.000003
 13 H s       :     0.000291  s :     0.000291
      pz      :    -0.000002  p :    -0.000010
      px      :    -0.000006
      py      :    -0.000003


                     *******************************
                     * LOEWDIN POPULATION ANALYSIS *
                     *******************************

-------------------------------------------
LOEWDIN ATOMIC CHARGES AND SPIN POPULATIONS
-------------------------------------------
   0 O :   -0.193622    0.829031
   1 O :   -0.123222    0.160015
   2 C :    0.076823   -0.006026
   3 C :    0.061286   -0.000515
   4 C :   -0.047531   -0.011862
   5 C :    0.028221    0.025940
   6 C :   -0.045545    0.000196
   7 H :    0.057690   -0.000292
   8 H :    0.032542    0.001085
   9 H :    0.030125    0.001357
  10 H :    0.030140    0.000329
  11 H :   -0.002606    0.000432
  12 H :    0.046670    0.000173
  13 H :    0.049027    0.000136

----------------------------------------------------
LOEWDIN REDUCED ORBITAL CHARGES AND SPIN POPULATIONS
----------------------------------------------------
CHARGE
  0 O s       :     3.696962  s :     3.696962
      pz      :     1.364227  p :     4.484738
      px      :     1.221029
      py      :     1.899482
      dz2     :     0.005178  d :     0.011922
      dxz     :     0.004961
      dyz     :     0.000306
      dx2y2   :     0.001168
      dxy     :     0.000310
  1 O s       :     3.590925  s :     3.590925
      pz      :     1.406533  p :     4.501630
      px      :     1.579975
      py      :     1.515122
      dz2     :     0.008514  d :     0.030668
      dxz     :     0.003899
      dyz     :     0.008591
      dx2y2   :     0.004066
      dxy     :     0.005598
  2 C s       :     2.862692  s :     2.862692
      pz      :     0.853108  p :     2.909412
      px      :     1.058582
      py      :     0.997722
      dz2     :     0.040631  d :     0.151073
      dxz     :     0.036244
      dyz     :     0.038840
      dx2y2   :     0.014418
      dxy     :     0.020940
  3 C s       :     2.867936  s :     2.867936
      pz      :     1.015381  p :     2.922791
      px      :     0.989645
      py      :     0.917765
      dz2     :     0.017849  d :     0.147987
      dxz     :     0.025774
      dyz     :     0.027308
      dx2y2   :     0.038347
      dxy     :     0.038709
  4 C s       :     2.890881  s :     2.890881
      pz      :     1.022974  p :     3.074751
      px      :     1.023320
      py      :     1.028457
      dz2     :     0.011529  d :     0.081899
      dxz     :     0.019425
      dyz     :     0.012637
      dx2y2   :     0.020844
      dxy     :     0.017464
  5 C s       :     2.873307  s :     2.873307
      pz      :     0.989680  p :     3.018249
      px      :     1.005112
      py      :     1.023457
      dz2     :     0.014374  d :     0.080223
      dxz     :     0.013456
      dyz     :     0.013201
      dx2y2   :     0.018262
      dxy     :     0.020930
  6 C s       :     2.847425  s :     2.847425
      pz      :     1.040013  p :     3.110904
      px      :     1.012893
      py      :     1.057998
      dz2     :     0.019524  d :     0.087216
      dxz     :     0.018291
      dyz     :     0.013013
      dx2y2   :     0.019070
      dxy     :     0.017319
  7 H s       :     0.769959  s :     0.769959
      pz      :     0.081517  p :     0.172351
      px      :     0.041760
      py      :     0.049074
  8 H s       :     0.893889  s :     0.893889
      pz      :     0.011084  p :     0.073569
      px      :     0.044670
      py      :     0.017814
  9 H s       :     0.899424  s :     0.899424
      pz      :     0.022378  p :     0.070451
      px      :     0.013789
      py      :     0.034284
 10 H s       :     0.897140  s :     0.897140
      pz      :     0.022628  p :     0.072721
      px      :     0.034872
      py      :     0.015220
 11 H s       :     0.908002  s :     0.908002
      pz      :     0.023136  p :     0.094603
      px      :     0.037039
      py      :     0.034427
 12 H s       :     0.886300  s :     0.886300
      pz      :     0.037474  p :     0.067031
      px      :     0.013651
      py      :     0.015905
 13 H s       :     0.883327  s :     0.883327
      pz      :     0.012718  p :     0.067647
      px      :     0.017282
      py      :     0.037647

SPIN
  0 O s       :     0.010725  s :     0.010725
      pz      :     0.139924  p :     0.818182
      px      :     0.641976
      py      :     0.036283
      dz2     :    -0.000241  d :     0.000123
      dxz     :     0.000296
      dyz     :     0.000001
      dx2y2   :     0.000020
      dxy     :     0.000047
  1 O s       :     0.015674  s :     0.015674
      pz      :     0.020063  p :     0.143676
      px      :     0.102047
      py      :     0.021566
      dz2     :    -0.000084  d :     0.000666
      dxz     :     0.000430
      dyz     :     0.000010
      dx2y2   :     0.000409
      dxy     :    -0.000099
  2 C s       :    -0.000655  s :    -0.000655
      pz      :    -0.003917  p :    -0.007204
      px      :    -0.000600
      py      :    -0.002688
      dz2     :     0.000591  d :     0.001833
      dxz     :     0.001063
      dyz     :    -0.000069
      dx2y2   :     0.000028
      dxy     :     0.000221
  3 C s       :    -0.000399  s :    -0.000399
      pz      :    -0.000378  p :    -0.001718
      px      :    -0.000126
      py      :    -0.001214
      dz2     :    -0.000002  d :     0.001602
      dxz     :    -0.000029
      dyz     :    -0.000011
      dx2y2   :     0.001764
      dxy     :    -0.000120
  4 C s       :     0.000057  s :     0.000057
      pz      :    -0.006973  p :    -0.012566
      px      :     0.001318
      py      :    -0.006911
      dz2     :     0.000129  d :     0.000648
      dxz     :     0.000076
      dyz     :     0.000044
      dx2y2   :     0.000282
      dxy     :     0.000116
  5 C s       :     0.001173  s :     0.001173
      pz      :     0.012572  p :     0.025092
      px      :     0.004413
      py      :     0.008107
      dz2     :    -0.000132  d :    -0.000324
      dxz     :    -0.000020
      dyz     :    -0.000055
      dx2y2   :    -0.000089
      dxy     :    -0.000028
  6 C s       :     0.000046  s :     0.000046
      pz      :     0.000062  p :    -0.000025
      px      :    -0.000377
      py      :     0.000291
      dz2     :     0.000000  d :     0.000175
      dxz     :     0.000083
      dyz     :     0.000016
      dx2y2   :    -0.000016
      dxy     :     0.000091
  7 H s       :    -0.019718  s :    -0.019718
      pz      :     0.007394  p :     0.019426
      px      :     0.012106
      py      :    -0.000074
  8 H s       :     0.001303  s :     0.001303
      pz      :    -0.000162  p :    -0.000217
      px      :     0.000035
      py      :    -0.000091
  9 H s       :     0.001529  s :     0.001529
      pz      :    -0.000023  p :    -0.000173
      px      :    -0.000017
      py      :    -0.000133
 10 H s       :     0.000628  s :     0.000628
      pz      :    -0.000145  p :    -0.000299
      px      :     0.000015
      py      :    -0.000169
 11 H s       :    -0.000681  s :    -0.000681
      pz      :     0.000519  p :     0.001113
      px      :     0.000248
      py      :     0.000346
 12 H s       :     0.000123  s :     0.000123
      pz      :     0.000000  p :     0.000050
      px      :     0.000036
      py      :     0.000014
 13 H s       :     0.000155  s :     0.000155
      pz      :     0.000003  p :    -0.000019
      px      :    -0.000017
      py      :    -0.000006


                      *****************************
                      * MAYER POPULATION ANALYSIS *
                      *****************************

  NA   - Mulliken gross atomic population
  ZA   - Total nuclear charge
  QA   - Mulliken gross atomic charge
  VA   - Mayer's total valence
  BVA  - Mayer's bonded valence
  FA   - Mayer's free valence

  ATOM       NA         ZA         QA         VA         BVA        FA
  0 O      8.2849     8.0000    -0.2849     2.0047     1.2933     0.7114
  1 O      8.3149     8.0000    -0.3149     2.0791     2.0563     0.0228
  2 C      5.9630     6.0000     0.0370     3.9525     3.9525     0.0001
  3 C      5.9283     6.0000     0.0717     3.9095     3.9095     0.0000
  4 C      5.9763     6.0000     0.0237     3.7657     3.7654     0.0003
  5 C      6.0630     6.0000    -0.0630     3.9649     3.9641     0.0008
  6 C      5.9253     6.0000     0.0747     3.8079     3.8079     0.0000
  7 H      0.8286     1.0000     0.1714     1.0058     1.0047     0.0012
  8 H      0.9276     1.0000     0.0724     1.0119     1.0119     0.0000
  9 H      0.9481     1.0000     0.0519     0.9994     0.9993     0.0000
 10 H      0.9641     1.0000     0.0359     0.9890     0.9890     0.0000
 11 H      1.0204     1.0000    -0.0204     1.0026     1.0026     0.0000
 12 H      0.9292     1.0000     0.0708     0.9771     0.9771     0.0000
 13 H      0.9262     1.0000     0.0738     0.9810     0.9810     0.0000

  Mayer bond orders larger than 0.100000
B(  0-O ,  1-O ) :   0.2101 B(  0-O ,  7-H ) :   0.9837 B(  1-O ,  2-C ) :   0.8967 
B(  1-O ,  3-C ) :   0.8791 B(  2-C ,  3-C ) :   1.0212 B(  2-C ,  6-C ) :   1.0051 
B(  2-C ,  8-H ) :   0.9600 B(  3-C ,  4-C ) :   0.9836 B(  3-C ,  9-H ) :   0.9724 
B(  4-C ,  5-C ) :   1.8059 B(  4-C , 10-H ) :   0.9962 B(  5-C ,  6-C ) :   1.0053 
B(  5-C , 11-H ) :   0.9999 B(  6-C , 12-H ) :   0.9285 B(  6-C , 13-H ) :   0.9285 



------------------
HIRSHFELD ANALYSIS
------------------

Total integrated alpha density =     27.000009467
Total integrated beta density  =     26.000008725

  ATOM     CHARGE      SPIN    
   0 O   -0.270886    0.800267
   1 O   -0.133832    0.158839
   2 C    0.059152   -0.000631
   3 C    0.044740    0.002794
   4 C   -0.045447   -0.006418
   5 C   -0.016131    0.021472
   6 C   -0.037688    0.001705
   7 H    0.133650    0.017667
   8 H    0.054310    0.001361
   9 H    0.052681    0.000843
  10 H    0.040877   -0.000261
  11 H    0.038920    0.001764
  12 H    0.037305    0.000372
  13 H    0.042330    0.000229

  TOTAL  -0.000018    1.000001

-------
TIMINGS
-------

Total SCF time: 0 days 0 hours 0 min 56 sec 

Total time                  ....      56.154 sec
Sum of individual times     ....      56.002 sec  ( 99.7%)

Fock matrix formation       ....      54.204 sec  ( 96.5%)
  Split-RI-J                ....       3.465 sec  (  6.4% of F)
  Chain of spheres X        ....      37.151 sec  ( 68.5% of F)
  XC integration            ....      13.594 sec  ( 25.1% of F)
    Basis function eval.    ....       3.985 sec  ( 29.3% of XC)
    Density eval.           ....       3.706 sec  ( 27.3% of XC)
    XC-Functional eval.     ....       1.347 sec  (  9.9% of XC)
    XC-Potential eval.      ....       4.230 sec  ( 31.1% of XC)
Diagonalization             ....       0.087 sec  (  0.2%)
Density matrix formation    ....       0.007 sec  (  0.0%)
Population analysis         ....       0.345 sec  (  0.6%)
Initial guess               ....       0.210 sec  (  0.4%)
Orbital Transformation      ....       0.000 sec  (  0.0%)
Orbital Orthonormalization  ....       0.000 sec  (  0.0%)
DIIS solution               ....       0.022 sec  (  0.0%)
Grid generation             ....       1.128 sec  (  2.0%)

Maximum memory used throughout the entire SCF-calculation: 63.5 MB


-------------------------------------------------------------------------------
                          DFT DISPERSION CORRECTION                            
                                                                               
                              DFTD3 V3.1  Rev 1                                
                          USING Becke-Johnson damping                          
-------------------------------------------------------------------------------
The PBE0 functional is recognized
Active option DFTDOPT                   ...         4   

molecular C6(AA) [au] = 1745.320996 


            DFT-D V3
 parameters
 s6 scaling factor         :     1.0000 
 a1 scaling factor         :     0.4145 
 s8 scaling factor         :     1.2177 
 a2 scaling factor         :     4.8593 
 ad hoc parameters k1-k3   :    16.0000     1.3333    -4.0000 

 Edisp/kcal,au: -6.142491478546  -0.009788682207 
 E6   /kcal   :  -3.906559128 
 E8   /kcal   :  -2.235932350 
 % E8         :  36.401065562 

-------------------------   ----------------
Dispersion correction           -0.009788682
-------------------------   ----------------


-------------------------   --------------------
FINAL SINGLE POINT ENERGY      -344.363618103391
-------------------------   --------------------

------------------------------------------------------------------------------
                         ORCA SCF GRADIENT CALCULATION
------------------------------------------------------------------------------

 ... reading COSX grid (gridx3)
Gradient of the Kohn-Sham DFT energy:
Kohn-Sham wavefunction type      ... UKS
Hartree-Fock exchange scaling    ...    0.250
Number of operators              ...    2
Number of atoms                  ...   14
Basis set dimensions             ...  133
Integral neglect threshold       ... 2.5e-11
Integral primitive cutoff        ... 2.5e-12
SHARK Integral package           ... ON

Nuc. rep. gradient       (SHARK) ... done (  0.0 sec)
HCore & Overlap gradient (SHARK) ... done (  0.1 sec)
RI-J gradient            (SHARK) ... done (  0.6 sec)
COSX-gradient                    ... done (  6.6 sec)
Exchange-correlation gradient    ... done
Dispersion correction            ... done

------------------
CARTESIAN GRADIENT
------------------

   1   O   :    0.010634197   -0.008442004   -0.026616503
   2   O   :   -0.008768005   -0.018339964    0.020263281
   3   C   :   -0.011976106    0.010162737   -0.026728641
   4   C   :    0.007095339    0.018342867   -0.002232100
   5   C   :   -0.006263384    0.049961181    0.037666250
   6   C   :    0.106037417   -0.129230152   -0.043462373
   7   C   :   -0.026109496    0.008774575    0.001625305
   8   H   :    0.010760569    0.002502797    0.018175647
   9   H   :    0.002933764   -0.001615854    0.002572401
  10   H   :   -0.002538363   -0.001832946    0.003277672
  11   H   :   -0.001648751   -0.003232842   -0.005552615
  12   H   :   -0.085073410    0.073589549    0.021678416
  13   H   :    0.006246299   -0.000426680   -0.000876425
  14   H   :   -0.001347788   -0.000227158    0.000103868

Difference to translation invariance:
           :   -0.0000177181   -0.0000138952   -0.0001058140

Difference to rotation invariance:
           :   -0.0005795179   -0.0003044289   -0.0001602154

Norm of the cartesian gradient     ...    0.2265343612
RMS gradient                       ...    0.0349550108
MAX gradient                       ...    0.1292301523

-------
TIMINGS
-------

Total SCF gradient time            ...       11.149 sec

One electron gradient       ....       0.097 sec  (  0.9%)
RI-J Coulomb gradient       ....       0.588 sec  (  5.3%)
COSX gradient               ....       6.630 sec  ( 59.5%)
XC gradient                 ....       3.540 sec  ( 31.8%)

Maximum memory used throughout the entire SCFGRAD-calculation: 50.3 MB

                            ***************************************
                            *     ORCA property calculations      *
                            ***************************************

                                    ---------------------
                                    Active property flags
                                    ---------------------
   (+) Dipole Moment


------------------------------------------------------------------------------
                       ORCA ELECTRIC PROPERTIES CALCULATION
------------------------------------------------------------------------------

Dipole Moment Calculation                       ... on
Quadrupole Moment Calculation                   ... off
Polarizability Calculation                      ... off
GBWName                                         ... 16_1_orca.gbw
Electron density                                ... 16_1_orca.scfp
The origin for moment calculation is the CENTER OF MASS  = (-0.358855, -0.009115  0.366793)

-------------
DIPOLE MOMENT
-------------
                                X             Y             Z
Electronic contribution:     -0.84529       0.34382       1.69316
Nuclear contribution   :      1.75027      -0.00379      -2.04845
                        -----------------------------------------
Total Dipole Moment    :      0.90498       0.34003      -0.35529
                        -----------------------------------------
Magnitude (a.u.)       :      1.02997
Magnitude (Debye)      :      2.61798



--------------------
Rotational spectrum 
--------------------
 
Rotational constants in cm-1:     0.198362     0.067932     0.057857 
Rotational constants in MHz :  5946.738824  2036.562481  1734.502201 

 Dipole components along the rotational axes: 
x,y,z [a.u.] :     0.921941     0.345393     0.302601 
x,y,z [Debye]:     2.343388     0.877918     0.769151 

 

Timings for individual modules:

Sum of individual times         ...       67.512 sec (=   1.125 min)
GTO integral calculation        ...        0.159 sec (=   0.003 min)   0.2 %
SCF iterations                  ...       56.177 sec (=   0.936 min)  83.2 %
SCF Gradient evaluation         ...       11.177 sec (=   0.186 min)  16.6 %
                             ****ORCA TERMINATED NORMALLY****
TOTAL RUN TIME: 0 days 0 hours 1 minutes 7 seconds 666 msec
