      -----------------------------------------------------------      
     |                   =====================                   |     
     |                           x T B                           |     
     |                   =====================                   |     
     |                         S. Grimme                         |     
     |          Mulliken Center for Theoretical Chemistry        |     
     |                    University of Bonn                     |     
      -----------------------------------------------------------      

   * xtb version 6.6.1 (8d0f1dd) compiled by 'conda@1efc2f54142f' on 2023-08-01

   xtb is free software: you can redistribute it and/or modify it under
   the terms of the GNU Lesser General Public License as published by
   the Free Software Foundation, either version 3 of the License, or
   (at your option) any later version.
   
   xtb is distributed in the hope that it will be useful,
   but WITHOUT ANY WARRANTY; without even the implied warranty of
   MERCHANTABILITY or FITNESS FOR A PARTICULAR PURPOSE.  See the
   GNU Lesser General Public License for more details.
   
   Cite this work as:
   * C. Bannwarth, E. Caldeweyher, S. Ehlert, A. Hansen, P. Pracht,
     J. Seibert, S. Spicher, S. Grimme, WIREs Comput. Mol. Sci., 2020, 11,
     e01493. DOI: 10.1002/wcms.1493
   
   for GFN2-xTB:
   * C. Bannwarth, S. Ehlert and S. Grimme., J. Chem. Theory Comput., 2019,
     15, 1652-1671. DOI: 10.1021/acs.jctc.8b01176
   for GFN1-xTB:
   * S. Grimme, C. Bannwarth, P. Shushkov, J. Chem. Theory Comput., 2017,
     13, 1989-2009. DOI: 10.1021/acs.jctc.7b00118
   for GFN0-xTB:
   * P. Pracht, E. Caldeweyher, S. Ehlert, S. Grimme, ChemRxiv, 2019, preprint.
     DOI: 10.26434/chemrxiv.8326202.v1
   for GFN-FF:
   * S. Spicher and S. Grimme, Angew. Chem. Int. Ed., 2020, 59, 15665-15673.
     DOI: 10.1002/anie.202004239
   
   for ALPB and GBSA implicit solvation:
   * S. Ehlert, M. Stahn, S. Spicher, S. Grimme, J. Chem. Theory Comput.,
     2021, 17, 4250-4261. DOI: 10.1021/acs.jctc.1c00471
   
   for DFT-D4:
   * E. Caldeweyher, C. Bannwarth and S. Grimme, J. Chem. Phys., 2017,
     147, 034112. DOI: 10.1063/1.4993215
   * E. Caldeweyher, S. Ehlert, A. Hansen, H. Neugebauer, S. Spicher,
     C. Bannwarth and S. Grimme, J. Chem. Phys., 2019, 150, 154122.
     DOI: 10.1063/1.5090222
   * E. Caldeweyher, J.-M. Mewes, S. Ehlert and S. Grimme, Phys. Chem. Chem. Phys.
     2020, 22, 8499-8512. DOI: 10.1039/D0CP00502A
   
   for sTDA-xTB:
   * S. Grimme and C. Bannwarth, J. Chem. Phys., 2016, 145, 054103.
     DOI: 10.1063/1.4959605
   
   in the mass-spec context:
   * V. Asgeirsson, C. Bauer and S. Grimme, Chem. Sci., 2017, 8, 4879.
     DOI: 10.1039/c7sc00601b
   * J. Koopman and S. Grimme, ACS Omega 2019, 4, 12, 15120-15133.
     DOI: 10.1021/acsomega.9b02011
   
   for metadynamics refer to:
   * S. Grimme, J. Chem. Theory Comput., 2019, 155, 2847-2862
     DOI: 10.1021/acs.jctc.9b00143
   
   for SPH calculations refer to:
   * S. Spicher and S. Grimme, J. Chem. Theory Comput., 2021, 17, 1701-1714
     DOI: 10.1021/acs.jctc.0c01306
   
   with help from (in alphabetical order)
   P. Atkinson, C. Bannwarth, F. Bohle, G. Brandenburg, E. Caldeweyher
   M. Checinski, S. Dohm, S. Ehlert, S. Ehrlich, I. Gerasimov, C. Hölzer
   A. Katbashev, J. Koopman, C. Lavigne, S. Lehtola, F. März, M. Müller,
   F. Musil, H. Neugebauer, J. Pisarek, C. Plett, P. Pracht, F. Pultar,
   J. Seibert, P. Shushkov, S. Spicher, M. Stahn, M. Steiner, T. Strunk,
   J. Stückrath, T. Rose, and J. Unsleber
   
 * started run on 2025/05/23 at 12:05:43.757     

           -------------------------------------------------
          |                Calculation Setup                |
           -------------------------------------------------

          program call               : /gpfs/fs1/home/copan/code/autode-practice/.pixi/envs/default/bin/xtb path_opt-1_xtb.xyz --chrg 0 --uhf 1 --opt --input xcontrol_path_opt-1_xtb
          hostname                   : csed-0029
          coordinate file            : path_opt-1_xtb.xyz
          omp threads                :                     8

   ID    Z sym.   atoms
    1    8 O      1, 2
    2    6 C      3-7
    3    1 H      8-14
constraining bond 2 6 to    3.3874000 Å, actual value:    3.3874473 Å
constraining bond 1 2 to    1.4266000 Å, actual value:    1.4266085 Å

           -------------------------------------------------
          |                 G F N 2 - x T B                 |
           -------------------------------------------------

        Reference                      10.1021/acs.jctc.8b01176
      * Hamiltonian:
        H0-scaling (s, p, d)           1.850000    2.230000    2.230000
        zeta-weighting                 0.500000
      * Dispersion:
        s8                             2.700000
        a1                             0.520000
        a2                             5.000000
        s9                             5.000000
      * Repulsion:
        kExp                           1.500000    1.000000
        rExp                           1.000000
      * Coulomb:
        alpha                          2.000000
        third order                    shell-resolved
        anisotropic                    true
        a3                             3.000000
        a5                             4.000000
        cn-shift                       1.200000
        cn-exp                         4.000000
        max-rad                        5.000000


          ...................................................
          :                      SETUP                      :
          :.................................................:
          :  # basis functions                  35          :
          :  # atomic orbitals                  35          :
          :  # shells                           21          :
          :  # electrons                        39          :
          :  max. iterations                   250          :
          :  Hamiltonian                  GFN2-xTB          :
          :  restarted?                      false          :
          :  GBSA solvation                  false          :
          :  PC potential                    false          :
          :  electronic temp.          300.0000000     K    :
          :  accuracy                    1.0000000          :
          :  -> integral cutoff          0.2500000E+02      :
          :  -> integral neglect         0.1000000E-07      :
          :  -> SCF convergence          0.1000000E-05 Eh   :
          :  -> wf. convergence          0.1000000E-03 e    :
          :  Broyden damping             0.4000000          :
          ...................................................

 iter      E             dE          RMSdq      gap      omega  full diag
   1    -22.4630522 -0.224631E+02  0.415E+00    3.68       0.0  T
   2    -22.4744878 -0.114357E-01  0.243E+00    3.60       1.0  T
   3    -22.4685850  0.590280E-02  0.856E-01    3.68       1.0  T
   4    -22.4738582 -0.527320E-02  0.387E-01    3.59       1.0  T
   5    -22.4760438 -0.218554E-02  0.923E-02    3.59       1.0  T
   6    -22.4760934 -0.496310E-04  0.437E-02    3.61       1.0  T
   7    -22.4760955 -0.203822E-05  0.163E-02    3.60       1.6  T
   8    -22.4760969 -0.139744E-05  0.573E-03    3.60       4.7  T
   9    -22.4760969 -0.644889E-07  0.153E-03    3.60      17.5  T
  10    -22.4760969 -0.411256E-08  0.624E-04    3.60      42.9  T
  11    -22.4760969 -0.805446E-09  0.145E-04    3.60     184.3  T

   *** convergence criteria satisfied after 11 iterations ***

         #    Occupation            Energy/Eh            Energy/eV
      -------------------------------------------------------------
         1        2.0000           -0.7215270             -19.6337
       ...           ...                  ...                  ...
        14        2.0000           -0.4653073             -12.6617
        15        2.0000           -0.4603207             -12.5260
        16        2.0000           -0.4580661             -12.4646
        17        2.0000           -0.4520335             -12.3005
        18        2.0000           -0.4326624             -11.7733
        19        2.0000           -0.4120913             -11.2136
        20        1.0000           -0.3204108              -8.7188 (HOMO)
        21                         -0.1879728              -5.1150 (LUMO)
        22                         -0.1406493              -3.8273
        23                          0.0528230               1.4374
        24                          0.0692363               1.8840
        25                          0.0933596               2.5404
       ...                                ...                  ...
        35                          0.5754022              15.6575
      -------------------------------------------------------------
                  HL-Gap            0.1324380 Eh            3.6038 eV
             Fermi-level           -0.3102214 Eh           -8.4416 eV

 SCC (total)                   0 d,  0 h,  0 min,  0.009 sec
 SCC setup                      ...        0 min,  0.000 sec (  2.884%)
 Dispersion                     ...        0 min,  0.000 sec (  1.255%)
 classical contributions        ...        0 min,  0.000 sec (  1.948%)
 integral evaluation            ...        0 min,  0.000 sec (  4.504%)
 iterations                     ...        0 min,  0.007 sec ( 76.883%)
 molecular gradient             ...        0 min,  0.001 sec (  9.883%)
 printout                       ...        0 min,  0.000 sec (  2.356%)

         :::::::::::::::::::::::::::::::::::::::::::::::::::::
         ::                     SUMMARY                     ::
         :::::::::::::::::::::::::::::::::::::::::::::::::::::
         :: total energy             -22.244921627283 Eh    ::
         :: gradient norm              0.031377946262 Eh/a0 ::
         :: HOMO-LUMO gap              3.603821832474 eV    ::
         ::.................................................::
         :: SCC energy               -22.476096920185 Eh    ::
         :: -> isotropic ES            0.028985591238 Eh    ::
         :: -> anisotropic ES         -0.003722556644 Eh    ::
         :: -> anisotropic XC          0.001524246217 Eh    ::
         :: -> dispersion             -0.008701884934 Eh    ::
         :: repulsion energy           0.231161134003 Eh    ::
         :: add. restraining           0.000000016468 Eh    ::
         :: total charge              -0.000000000000 e     ::
         :::::::::::::::::::::::::::::::::::::::::::::::::::::

      ----------------------------------------------------------- 
     |                   =====================                   |
     |                        A N C O P T                        |
     |                   =====================                   |
     |               Approximate Normal Coordinate               |
     |                Rational Function Optimizer                |
      ----------------------------------------------------------- 

          ...................................................
          :                      SETUP                      :
          :.................................................:
          :   optimization level            normal          :
          :   max. optcycles                   200          :
          :   ANC micro-cycles                  20          :
          :   degrees of freedom                36          :
          :.................................................:
          :   RF solver                   davidson          :
          :   write xtbopt.log                true          :
          :   linear?                        false          :
          :   energy convergence         0.5000000E-05 Eh   :
          :   grad. convergence          0.1000000E-02 Eh/α :
          :   maxmium RF displ.          1.0000000          :
          :   Hlow (freq-cutoff)         0.1000000E-01      :
          :   Hmax (freq-cutoff)         5.0000000          :
          :   S6 in model hess.         20.0000000          :
          ...................................................

generating ANC from model Hessian ...
Using Lindh-Hessian (1995)
 Shifting diagonal of input Hessian by    4.1593520316569781E-003
 Lowest  eigenvalues of input Hessian
    0.000000    0.000000    0.000000    0.000000    0.000000    0.000000
    0.010000    0.011379    0.017956    0.020995    0.027711    0.036002
    0.051127    0.055294    0.064061    0.069366    0.075639    0.082979
 Highest eigenvalues
    1.336450    1.372982    1.661761    1.734828    6.971250   10.896568


........................................................................
.............................. CYCLE    1 ..............................
........................................................................

 iter      E             dE          RMSdq      gap      omega  full diag
   1    -22.4760969 -0.224761E+02  0.711E-05    3.60       0.0  T
   2    -22.4760969 -0.742517E-11  0.496E-05    3.60     538.7  T
   3    -22.4760969 -0.605382E-11  0.413E-05    3.60     647.7  T
     SCC iter.                  ...        0 min,  0.002 sec
     gradient                   ...        0 min,  0.001 sec
 * total energy  :   -22.2449216 Eh     change       -0.6142642E-10 Eh
   gradient norm :     0.0313776 Eh/α   predicted     0.0000000E+00 (-100.00%)
   displ. norm   :     0.1772324 α      lambda       -0.3178116E-02
   maximum displ.:     0.0949297 α      in ANC's #10, #2, #21, ...

........................................................................
.............................. CYCLE    2 ..............................
........................................................................

 iter      E             dE          RMSdq      gap      omega  full diag
   1    -22.4917548 -0.224918E+02  0.139E-01    3.68       0.0  T
   2    -22.4917633 -0.848167E-05  0.858E-02    3.68       1.0  T
   3    -22.4917443  0.190135E-04  0.383E-02    3.68       1.0  T
   4    -22.4917654 -0.211258E-04  0.109E-02    3.68       2.5  T
   5    -22.4917668 -0.133712E-05  0.351E-03    3.68       7.6  T
   6    -22.4917668 -0.348699E-07  0.175E-03    3.68      15.3  T
   7    -22.4917668 -0.123102E-07  0.935E-04    3.68      28.6  T
   8    -22.4917668 -0.376060E-08  0.434E-04    3.68      61.6  T
     SCC iter.                  ...        0 min,  0.004 sec
     gradient                   ...        0 min,  0.001 sec
 * total energy  :   -22.2468664 Eh     change       -0.1944773E-02 Eh
   gradient norm :     0.0108932 Eh/α   predicted    -0.1638975E-02 ( -15.72%)
   displ. norm   :     0.1222858 α      lambda       -0.3684052E-03
   maximum displ.:     0.0820306 α      in ANC's #2, #1, #4, ...

........................................................................
.............................. CYCLE    3 ..............................
........................................................................

 iter      E             dE          RMSdq      gap      omega  full diag
   1    -22.4959375 -0.224959E+02  0.765E-02    3.70       0.0  T
   2    -22.4959382 -0.738465E-06  0.456E-02    3.70       1.0  T
   3    -22.4959383 -0.437636E-07  0.423E-03    3.70       6.3  T
   4    -22.4959384 -0.100608E-06  0.189E-03    3.70      14.1  T
   5    -22.4959384 -0.240220E-08  0.144E-03    3.70      18.5  T
   6    -22.4959384 -0.203954E-07  0.398E-04    3.70      67.2  T
   7    -22.4959384 -0.434586E-09  0.145E-04    3.70     183.9  T
     SCC iter.                  ...        0 min,  0.004 sec
     gradient                   ...        0 min,  0.001 sec
 * total energy  :   -22.2470842 Eh     change       -0.2177514E-03 Eh
   gradient norm :     0.0062537 Eh/α   predicted    -0.1869585E-03 ( -14.14%)
   displ. norm   :     0.0947713 α      lambda       -0.9205882E-04
   maximum displ.:     0.0693409 α      in ANC's #2, #1, #4, ...

........................................................................
.............................. CYCLE    4 ..............................
........................................................................

 iter      E             dE          RMSdq      gap      omega  full diag
   1    -22.4961823 -0.224962E+02  0.563E-02    3.69       0.0  T
   2    -22.4961826 -0.306309E-06  0.339E-02    3.70       1.0  T
   3    -22.4961821  0.534419E-06  0.634E-03    3.69       4.2  T
   4    -22.4961827 -0.589011E-06  0.204E-03    3.70      13.1  T
   5    -22.4961827 -0.435884E-07  0.814E-04    3.70      32.8  T
   6    -22.4961827 -0.150484E-08  0.346E-04    3.70      77.2  T
     SCC iter.                  ...        0 min,  0.003 sec
     gradient                   ...        0 min,  0.001 sec
 * total energy  :   -22.2471450 Eh     change       -0.6081501E-04 Eh
   gradient norm :     0.0087949 Eh/α   predicted    -0.4644458E-04 ( -23.63%)
   displ. norm   :     0.1186581 α      lambda       -0.9304985E-04
   maximum displ.:     0.0767072 α      in ANC's #2, #1, #4, ...

........................................................................
.............................. CYCLE    5 ..............................
........................................................................

 iter      E             dE          RMSdq      gap      omega  full diag
   1    -22.4954482 -0.224954E+02  0.699E-02    3.69       0.0  T
   2    -22.4954485 -0.324875E-06  0.421E-02    3.69       1.0  T
   3    -22.4954482  0.317159E-06  0.536E-03    3.69       5.0  T
   4    -22.4954486 -0.380869E-06  0.228E-03    3.69      11.7  T
   5    -22.4954486 -0.514948E-07  0.982E-04    3.69      27.2  T
   6    -22.4954486 -0.184097E-08  0.247E-04    3.69     108.3  T
     SCC iter.                  ...        0 min,  0.003 sec
     gradient                   ...        0 min,  0.001 sec
 * total energy  :   -22.2472032 Eh     change       -0.5822032E-04 Eh
   gradient norm :     0.0077890 Eh/α   predicted    -0.4717882E-04 ( -18.97%)
   displ. norm   :     0.0971452 α      lambda       -0.7416400E-04
   maximum displ.:     0.0669458 α      in ANC's #1, #2, #4, ...

........................................................................
.............................. CYCLE    6 ..............................
........................................................................

 iter      E             dE          RMSdq      gap      omega  full diag
   1    -22.4950571 -0.224951E+02  0.575E-02    3.69       0.0  T
   2    -22.4950575 -0.335665E-06  0.349E-02    3.69       1.0  T
   3    -22.4950575 -0.970343E-08  0.327E-03    3.69       8.2  T
   4    -22.4950575 -0.880940E-07  0.135E-03    3.69      19.8  T
   5    -22.4950575  0.485496E-08  0.852E-04    3.69      31.4  T
   6    -22.4950576 -0.736690E-08  0.300E-04    3.69      89.2  T
     SCC iter.                  ...        0 min,  0.003 sec
     gradient                   ...        0 min,  0.001 sec
 * total energy  :   -22.2472592 Eh     change       -0.5602470E-04 Eh
   gradient norm :     0.0041700 Eh/α   predicted    -0.3743399E-04 ( -33.18%)
   displ. norm   :     0.1443644 α      lambda       -0.9706234E-04
   maximum displ.:     0.1026328 α      in ANC's #1, #2, #4, ...

........................................................................
.............................. CYCLE    7 ..............................
........................................................................

 iter      E             dE          RMSdq      gap      omega  full diag
   1    -22.4948959 -0.224949E+02  0.816E-02    3.69       0.0  T
   2    -22.4948968 -0.887217E-06  0.496E-02    3.69       1.0  T
   3    -22.4948952  0.157875E-05  0.118E-02    3.69       2.3  T
   4    -22.4948970 -0.178039E-05  0.355E-03    3.69       7.5  T
   5    -22.4948971 -0.153801E-06  0.146E-03    3.69      18.4  T
   6    -22.4948971 -0.329948E-08  0.272E-04    3.69      98.4  T
   7    -22.4948971 -0.295547E-09  0.121E-04    3.69     220.9  T
     SCC iter.                  ...        0 min,  0.004 sec
     gradient                   ...        0 min,  0.001 sec
 * total energy  :   -22.2473311 Eh     change       -0.7189457E-04 Eh
   gradient norm :     0.0054039 Eh/α   predicted    -0.4954362E-04 ( -31.09%)
   displ. norm   :     0.1472952 α      lambda       -0.1150496E-03
   maximum displ.:     0.1165310 α      in ANC's #1, #2, #6, ...

........................................................................
.............................. CYCLE    8 ..............................
........................................................................

 iter      E             dE          RMSdq      gap      omega  full diag
   1    -22.4958073 -0.224958E+02  0.855E-02    3.69       0.0  T
   2    -22.4958085 -0.115860E-05  0.524E-02    3.69       1.0  T
   3    -22.4958031  0.541675E-05  0.204E-02    3.69       1.3  T
   4    -22.4958092 -0.610747E-05  0.374E-03    3.69       7.1  T
   5    -22.4958093 -0.124544E-06  0.179E-03    3.69      14.9  T
   6    -22.4958093 -0.526001E-08  0.463E-04    3.69      57.8  T
   7    -22.4958093 -0.565532E-09  0.217E-04    3.69     123.0  T
     SCC iter.                  ...        0 min,  0.004 sec
     gradient                   ...        0 min,  0.001 sec
 * total energy  :   -22.2474041 Eh     change       -0.7296875E-04 Eh
   gradient norm :     0.0070442 Eh/α   predicted    -0.5877180E-04 ( -19.46%)
   displ. norm   :     0.2466199 α      lambda       -0.1202795E-03
   maximum displ.:     0.1643871 α      in ANC's #1, #2, #4, ...

........................................................................
.............................. CYCLE    9 ..............................
........................................................................

 iter      E             dE          RMSdq      gap      omega  full diag
   1    -22.4941271 -0.224941E+02  0.134E-01    3.69       0.0  T
   2    -22.4941301 -0.303428E-05  0.814E-02    3.69       1.0  T
   3    -22.4941180  0.120854E-04  0.303E-02    3.69       1.0  T
   4    -22.4941315 -0.134246E-04  0.581E-03    3.69       4.6  T
   5    -22.4941318 -0.359806E-06  0.225E-03    3.69      11.9  T
   6    -22.4941318 -0.829357E-08  0.874E-04    3.69      30.6  T
   7    -22.4941318 -0.102881E-08  0.246E-04    3.69     108.7  T
     SCC iter.                  ...        0 min,  0.004 sec
     gradient                   ...        0 min,  0.001 sec
 * total energy  :   -22.2472830 Eh     change        0.1210270E-03 Eh
   gradient norm :     0.0202927 Eh/α   predicted    -0.6379816E-04 (-152.71%)
   displ. norm   :     0.1485275 α      lambda       -0.5001990E-03
   maximum displ.:     0.0990049 α      in ANC's #1, #2, #4, ...

........................................................................
.............................. CYCLE   10 ..............................
........................................................................

 iter      E             dE          RMSdq      gap      omega  full diag
   1    -22.4970535 -0.224971E+02  0.882E-02    3.69       0.0  T
   2    -22.4970550 -0.144534E-05  0.529E-02    3.69       1.0  T
   3    -22.4970543  0.696283E-06  0.102E-02    3.69       2.6  T
   4    -22.4970553 -0.102525E-05  0.441E-03    3.69       6.1  T
   5    -22.4970555 -0.189153E-06  0.212E-03    3.69      12.6  T
   6    -22.4970555 -0.185488E-07  0.799E-04    3.69      33.5  T
   7    -22.4970555 -0.201408E-08  0.316E-04    3.69      84.6  T
     SCC iter.                  ...        0 min,  0.004 sec
     gradient                   ...        0 min,  0.001 sec
 * total energy  :   -22.2474659 Eh     change       -0.1828527E-03 Eh
   gradient norm :     0.0113065 Eh/α   predicted    -0.2556183E-03 (  39.79%)
   displ. norm   :     0.0680523 α      lambda       -0.5954595E-04
   maximum displ.:     0.0502912 α      in ANC's #1, #2, #6, ...

........................................................................
.............................. CYCLE   11 ..............................
........................................................................

 iter      E             dE          RMSdq      gap      omega  full diag
   1    -22.4967387 -0.224967E+02  0.429E-02    3.69       0.0  T
   2    -22.4967390 -0.221272E-06  0.267E-02    3.69       1.0  T
   3    -22.4967389  0.715435E-07  0.365E-03    3.69       7.3  T
   4    -22.4967390 -0.167138E-06  0.161E-03    3.69      16.6  T
   5    -22.4967391 -0.191706E-07  0.680E-04    3.69      39.3  T
   6    -22.4967391 -0.101523E-08  0.284E-04    3.69      94.0  T
     SCC iter.                  ...        0 min,  0.003 sec
     gradient                   ...        0 min,  0.001 sec
 * total energy  :   -22.2474909 Eh     change       -0.2495896E-04 Eh
   gradient norm :     0.0086326 Eh/α   predicted    -0.2991218E-04 (  19.85%)
   displ. norm   :     0.0833350 α      lambda       -0.5585966E-04
   maximum displ.:     0.0515823 α      in ANC's #2, #1, #5, ...

........................................................................
.............................. CYCLE   12 ..............................
........................................................................

 iter      E             dE          RMSdq      gap      omega  full diag
   1    -22.4963750 -0.224964E+02  0.435E-02    3.69       0.0  T
   2    -22.4963753 -0.258480E-06  0.268E-02    3.69       1.0  T
   3    -22.4963733  0.194366E-05  0.119E-02    3.69       2.3  T
   4    -22.4963755 -0.217989E-05  0.153E-03    3.69      17.5  T
   5    -22.4963755 -0.154192E-07  0.773E-04    3.69      34.6  T
   6    -22.4963755 -0.494140E-09  0.205E-04    3.69     130.1  T
     SCC iter.                  ...        0 min,  0.003 sec
     gradient                   ...        0 min,  0.001 sec
 * total energy  :   -22.2475331 Eh     change       -0.4221115E-04 Eh
   gradient norm :     0.0050794 Eh/α   predicted    -0.2812394E-04 ( -33.37%)
   displ. norm   :     0.1157883 α      lambda       -0.5987479E-04
   maximum displ.:     0.0753629 α      in ANC's #2, #1, #30, ...

........................................................................
.............................. CYCLE   13 ..............................
........................................................................

 iter      E             dE          RMSdq      gap      omega  full diag
   1    -22.4958315 -0.224958E+02  0.581E-02    3.69       0.0  T
   2    -22.4958319 -0.429201E-06  0.359E-02    3.69       1.0  T
   3    -22.4958277  0.418457E-05  0.174E-02    3.69       1.5  T
   4    -22.4958324 -0.469868E-05  0.193E-03    3.69      13.8  T
   5    -22.4958324 -0.158147E-07  0.105E-03    3.69      25.5  T
   6    -22.4958324 -0.849404E-09  0.271E-04    3.69      98.5  T
   7    -22.4958324 -0.633058E-10  0.757E-05    3.69     352.9  T
     SCC iter.                  ...        0 min,  0.004 sec
     gradient                   ...        0 min,  0.001 sec
 * total energy  :   -22.2475615 Eh     change       -0.2843418E-04 Eh
   gradient norm :     0.0103382 Eh/α   predicted    -0.3033728E-04 (   6.69%)
   displ. norm   :     0.0268537 α      lambda       -0.5246929E-04
   maximum displ.:     0.0221235 α      in ANC's #1, #3, #30, ...

........................................................................
.............................. CYCLE   14 ..............................
........................................................................

 iter      E             dE          RMSdq      gap      omega  full diag
   1    -22.4963998 -0.224964E+02  0.225E-02    3.69       0.0  T
   2    -22.4963999 -0.974811E-07  0.137E-02    3.69       2.0  T
   3    -22.4963998  0.932418E-07  0.316E-03    3.69       8.5  T
   4    -22.4964000 -0.125687E-06  0.128E-03    3.69      20.9  T
   5    -22.4964000 -0.132162E-07  0.576E-04    3.69      46.4  T
   6    -22.4964000 -0.783803E-09  0.205E-04    3.69     130.5  T
     SCC iter.                  ...        0 min,  0.003 sec
     gradient                   ...        0 min,  0.001 sec
 * total energy  :   -22.2475944 Eh     change       -0.3284884E-04 Eh
   gradient norm :     0.0125780 Eh/α   predicted    -0.2625197E-04 ( -20.08%)
   displ. norm   :     0.0847935 α      lambda       -0.5349512E-04
   maximum displ.:     0.0646125 α      in ANC's #2, #30, #1, ...

........................................................................
.............................. CYCLE   15 ..............................
........................................................................

 iter      E             dE          RMSdq      gap      omega  full diag
   1    -22.4962978 -0.224963E+02  0.401E-02    3.69       0.0  T
   2    -22.4962980 -0.145324E-06  0.246E-02    3.69       1.1  T
   3    -22.4962965  0.147916E-05  0.102E-02    3.69       2.6  T
   4    -22.4962981 -0.166753E-05  0.123E-03    3.69      21.7  T
   5    -22.4962981 -0.128108E-08  0.610E-04    3.69      43.8  T
   6    -22.4962981 -0.521410E-09  0.201E-04    3.69     132.6  T
     SCC iter.                  ...        0 min,  0.003 sec
     gradient                   ...        0 min,  0.001 sec
 * total energy  :   -22.2476379 Eh     change       -0.4353541E-04 Eh
   gradient norm :     0.0083877 Eh/α   predicted    -0.2694002E-04 ( -38.12%)
   displ. norm   :     0.1912647 α      lambda       -0.8648884E-04
   maximum displ.:     0.1431562 α      in ANC's #2, #30, #1, ...

........................................................................
.............................. CYCLE   16 ..............................
........................................................................

 iter      E             dE          RMSdq      gap      omega  full diag
   1    -22.4949335 -0.224949E+02  0.913E-02    3.69       0.0  T
   2    -22.4949346 -0.106350E-05  0.563E-02    3.69       1.0  T
   3    -22.4949260  0.859684E-05  0.250E-02    3.69       1.1  T
   4    -22.4949359 -0.985480E-05  0.340E-03    3.69       7.9  T
   5    -22.4949359 -0.135874E-07  0.175E-03    3.69      15.3  T
   6    -22.4949359 -0.249011E-08  0.531E-04    3.69      50.3  T
   7    -22.4949359 -0.743718E-09  0.149E-04    3.69     179.6  T
     SCC iter.                  ...        0 min,  0.004 sec
     gradient                   ...        0 min,  0.001 sec
 * total energy  :   -22.2476526 Eh     change       -0.1470860E-04 Eh
   gradient norm :     0.0112445 Eh/α   predicted    -0.4482628E-04 ( 204.76%)
   displ. norm   :     0.0627365 α      lambda       -0.1300745E-03
   maximum displ.:     0.0358195 α      in ANC's #1, #2, #6, ...

........................................................................
.............................. CYCLE   17 ..............................
........................................................................

 iter      E             dE          RMSdq      gap      omega  full diag
   1    -22.4965076 -0.224965E+02  0.374E-02    3.69       0.0  T
   2    -22.4965080 -0.422176E-06  0.222E-02    3.69       1.2  T
   3    -22.4965070  0.109204E-05  0.947E-03    3.69       2.8  T
   4    -22.4965082 -0.127242E-05  0.216E-03    3.69      12.4  T
   5    -22.4965083 -0.330175E-07  0.883E-04    3.69      30.3  T
   6    -22.4965083 -0.170786E-08  0.427E-04    3.69      62.6  T
     SCC iter.                  ...        0 min,  0.003 sec
     gradient                   ...        0 min,  0.001 sec
 * total energy  :   -22.2477016 Eh     change       -0.4899954E-04 Eh
   gradient norm :     0.0043032 Eh/α   predicted    -0.6529357E-04 (  33.25%)
   displ. norm   :     0.0494796 α      lambda       -0.2879826E-04
   maximum displ.:     0.0320723 α      in ANC's #2, #30, #4, ...

........................................................................
.............................. CYCLE   18 ..............................
........................................................................

 iter      E             dE          RMSdq      gap      omega  full diag
   1    -22.4963484 -0.224963E+02  0.339E-02    3.69       0.0  T
   2    -22.4963486 -0.215019E-06  0.214E-02    3.69       1.2  T
   3    -22.4963478  0.763448E-06  0.778E-03    3.69       3.4  T
   4    -22.4963488 -0.950619E-06  0.141E-03    3.69      18.9  T
   5    -22.4963488 -0.448038E-08  0.704E-04    3.69      38.0  T
   6    -22.4963488 -0.409358E-09  0.126E-04    3.69     211.7  T
     SCC iter.                  ...        0 min,  0.003 sec
     gradient                   ...        0 min,  0.001 sec
 * total energy  :   -22.2477271 Eh     change       -0.2549935E-04 Eh
   gradient norm :     0.0028779 Eh/α   predicted    -0.1443629E-04 ( -43.39%)
   displ. norm   :     0.2002250 α      lambda       -0.9644529E-04
   maximum displ.:     0.1204489 α      in ANC's #2, #30, #4, ...

........................................................................
.............................. CYCLE   19 ..............................
........................................................................

 iter      E             dE          RMSdq      gap      omega  full diag
   1    -22.4944231 -0.224944E+02  0.138E-01    3.69       0.0  T
   2    -22.4944272 -0.405187E-05  0.866E-02    3.69       1.0  T
   3    -22.4944169  0.102864E-04  0.295E-02    3.69       1.0  T
   4    -22.4944302 -0.132646E-04  0.649E-03    3.69       4.1  T
   5    -22.4944303 -0.161181E-06  0.300E-03    3.69       8.9  T
   6    -22.4944303 -0.811365E-08  0.863E-04    3.69      31.0  T
   7    -22.4944303 -0.125715E-08  0.232E-04    3.69     115.4  T
     SCC iter.                  ...        0 min,  0.004 sec
     gradient                   ...        0 min,  0.001 sec
 * total energy  :   -22.2476299 Eh     change        0.9715803E-04 Eh
   gradient norm :     0.0179206 Eh/α   predicted    -0.5015702E-04 (-151.62%)
   displ. norm   :     0.1587687 α      lambda       -0.4181886E-03
   maximum displ.:     0.1082019 α      in ANC's #2, #30, #4, ...

........................................................................
.............................. CYCLE   20 ..............................
........................................................................

 iter      E             dE          RMSdq      gap      omega  full diag
   1    -22.4965851 -0.224966E+02  0.971E-02    3.69       0.0  T
   2    -22.4965874 -0.229999E-05  0.604E-02    3.69       1.0  T
   3    -22.4965811  0.630694E-05  0.232E-02    3.69       1.2  T
   4    -22.4965891 -0.800260E-05  0.536E-03    3.69       5.0  T
   5    -22.4965892 -0.927571E-07  0.244E-03    3.69      11.0  T
   6    -22.4965892 -0.568406E-08  0.807E-04    3.69      33.1  T
   7    -22.4965892 -0.141079E-08  0.218E-04    3.69     122.5  T
     SCC iter.                  ...        0 min,  0.004 sec
     gradient                   ...        0 min,  0.001 sec
 * total energy  :   -22.2477605 Eh     change       -0.1305965E-03 Eh
   gradient norm :     0.0022272 Eh/α   predicted    -0.2143635E-03 (  64.14%)
   displ. norm   :     0.0270155 α      lambda       -0.1751485E-04
   maximum displ.:     0.0150954 α      in ANC's #30, #4, #5, ...
 * RMSD in coord.:     0.3713277 α      energy gain  -0.2838908E-02 Eh

generating ANC from model Hessian ...
Using Lindh-Hessian (1995)
 Shifting diagonal of input Hessian by    3.7608814717571635E-003
 Lowest  eigenvalues of input Hessian
    0.000000    0.000000    0.000000    0.000000    0.000000    0.000000
    0.010000    0.011995    0.019230    0.026267    0.026642    0.037542
    0.053318    0.058576    0.065711    0.068756    0.080237    0.089887
 Highest eigenvalues
    1.368479    1.412167    1.745173    1.820030    6.713601   11.219439


........................................................................
.............................. CYCLE   21 ..............................
........................................................................

 iter      E             dE          RMSdq      gap      omega  full diag
   1    -22.4966065 -0.224966E+02  0.248E-02    3.69       0.0  T
   2    -22.4966067 -0.115150E-06  0.157E-02    3.69       1.7  T
   3    -22.4966066  0.396807E-07  0.281E-03    3.69       9.5  T
   4    -22.4966067 -0.104037E-06  0.109E-03    3.69      24.5  T
   5    -22.4966067 -0.899906E-08  0.497E-04    3.69      53.8  T
   6    -22.4966067 -0.270280E-09  0.105E-04    3.69     254.8  T
     SCC iter.                  ...        0 min,  0.003 sec
     gradient                   ...        0 min,  0.001 sec
 * total energy  :   -22.2477770 Eh     change       -0.1645694E-04 Eh
   gradient norm :     0.0017474 Eh/α   predicted     0.0000000E+00 (-100.00%)
   displ. norm   :     0.0399167 α      lambda       -0.2036408E-04
   maximum displ.:     0.0284097 α      in ANC's #4, #5, #2, ...

........................................................................
.............................. CYCLE   22 ..............................
........................................................................

 iter      E             dE          RMSdq      gap      omega  full diag
   1    -22.4966887 -0.224967E+02  0.450E-02    3.69       0.0  T
   2    -22.4966891 -0.403499E-06  0.287E-02    3.69       1.0  T
   3    -22.4966890  0.175847E-07  0.427E-03    3.69       6.3  T
   4    -22.4966893 -0.211197E-06  0.199E-03    3.69      13.4  T
   5    -22.4966893 -0.419774E-07  0.748E-04    3.69      35.7  T
   6    -22.4966893 -0.926544E-09  0.253E-04    3.69     105.8  T
     SCC iter.                  ...        0 min,  0.003 sec
     gradient                   ...        0 min,  0.001 sec
 * total energy  :   -22.2478019 Eh     change       -0.2491996E-04 Eh
   gradient norm :     0.0027857 Eh/α   predicted    -0.1019017E-04 ( -59.11%)
   displ. norm   :     0.0842128 α      lambda       -0.4676457E-04
   maximum displ.:     0.0595937 α      in ANC's #4, #5, #2, ...

........................................................................
.............................. CYCLE   23 ..............................
........................................................................

 iter      E             dE          RMSdq      gap      omega  full diag
   1    -22.4964669 -0.224965E+02  0.904E-02    3.69       0.0  T
   2    -22.4964684 -0.146402E-05  0.576E-02    3.69       1.0  T
   3    -22.4964666  0.179431E-05  0.134E-02    3.69       2.0  T
   4    -22.4964694 -0.278249E-05  0.320E-03    3.69       8.3  T
   5    -22.4964694 -0.645653E-07  0.153E-03    3.69      17.5  T
   6    -22.4964694 -0.177245E-08  0.244E-04    3.69     109.7  T
   7    -22.4964694 -0.141384E-09  0.120E-04    3.69     222.8  T
     SCC iter.                  ...        0 min,  0.004 sec
     gradient                   ...        0 min,  0.001 sec
 * total energy  :   -22.2478322 Eh     change       -0.3029965E-04 Eh
   gradient norm :     0.0046553 Eh/α   predicted    -0.2355015E-04 ( -22.28%)
   displ. norm   :     0.0388291 α      lambda       -0.1586350E-04
   maximum displ.:     0.0264664 α      in ANC's #4, #5, #1, ...

........................................................................
.............................. CYCLE   24 ..............................
........................................................................

 iter      E             dE          RMSdq      gap      omega  full diag
   1    -22.4964762 -0.224965E+02  0.368E-02    3.69       0.0  T
   2    -22.4964765 -0.237092E-06  0.234E-02    3.69       1.1  T
   3    -22.4964760  0.465424E-06  0.636E-03    3.69       4.2  T
   4    -22.4964767 -0.643790E-06  0.129E-03    3.69      20.6  T
   5    -22.4964767 -0.682911E-08  0.653E-04    3.69      40.9  T
   6    -22.4964767 -0.279279E-09  0.736E-05    3.69     363.2  T
     SCC iter.                  ...        0 min,  0.003 sec
     gradient                   ...        0 min,  0.001 sec
 * total energy  :   -22.2478445 Eh     change       -0.1224740E-04 Eh
   gradient norm :     0.0034340 Eh/α   predicted    -0.7945736E-05 ( -35.12%)
   displ. norm   :     0.0478424 α      lambda       -0.2537367E-04
   maximum displ.:     0.0295924 α      in ANC's #4, #5, #1, ...

........................................................................
.............................. CYCLE   25 ..............................
........................................................................

 iter      E             dE          RMSdq      gap      omega  full diag
   1    -22.4967689 -0.224968E+02  0.405E-02    3.69       0.0  T
   2    -22.4967692 -0.281535E-06  0.256E-02    3.69       1.0  T
   3    -22.4967685  0.638024E-06  0.737E-03    3.69       3.6  T
   4    -22.4967694 -0.862102E-06  0.155E-03    3.69      17.3  T
   5    -22.4967694 -0.602718E-08  0.781E-04    3.69      34.2  T
   6    -22.4967694 -0.693049E-09  0.108E-04    3.69     247.1  T
     SCC iter.                  ...        0 min,  0.003 sec
     gradient                   ...        0 min,  0.001 sec
 * total energy  :   -22.2478608 Eh     change       -0.1630223E-04 Eh
   gradient norm :     0.0037444 Eh/α   predicted    -0.1271601E-04 ( -22.00%)
   displ. norm   :     0.0957362 α      lambda       -0.2279461E-04
   maximum displ.:     0.0635194 α      in ANC's #4, #5, #1, ...

........................................................................
.............................. CYCLE   26 ..............................
........................................................................

 iter      E             dE          RMSdq      gap      omega  full diag
   1    -22.4962393 -0.224962E+02  0.925E-02    3.69       0.0  T
   2    -22.4962408 -0.153364E-05  0.588E-02    3.69       1.0  T
   3    -22.4962377  0.306521E-05  0.163E-02    3.69       1.6  T
   4    -22.4962419 -0.421099E-05  0.339E-03    3.69       7.9  T
   5    -22.4962420 -0.442470E-07  0.165E-03    3.69      16.2  T
   6    -22.4962420 -0.224299E-08  0.324E-04    3.69      82.5  T
   7    -22.4962420 -0.177472E-09  0.907E-05    3.69     294.7  T
     SCC iter.                  ...        0 min,  0.004 sec
     gradient                   ...        0 min,  0.001 sec
 * total energy  :   -22.2478478 Eh     change        0.1294438E-04 Eh
   gradient norm :     0.0123566 Eh/α   predicted    -0.1149948E-04 (-188.84%)
   displ. norm   :     0.0541824 α      lambda       -0.6382853E-04
   maximum displ.:     0.0373400 α      in ANC's #4, #5, #3, ...

........................................................................
.............................. CYCLE   27 ..............................
........................................................................

 iter      E             dE          RMSdq      gap      omega  full diag
   1    -22.4969133 -0.224969E+02  0.593E-02    3.69       0.0  T
   2    -22.4969139 -0.652783E-06  0.376E-02    3.69       1.0  T
   3    -22.4969126  0.133304E-05  0.107E-02    3.69       2.5  T
   4    -22.4969144 -0.179010E-05  0.234E-03    3.69      11.4  T
   5    -22.4969144 -0.285703E-07  0.108E-03    3.69      24.8  T
   6    -22.4969144 -0.997805E-09  0.288E-04    3.69      92.6  T
   7    -22.4969144 -0.124601E-09  0.796E-05    3.69     335.7  T
     SCC iter.                  ...        0 min,  0.004 sec
     gradient                   ...        0 min,  0.001 sec
 * total energy  :   -22.2478715 Eh     change       -0.2368229E-04 Eh
   gradient norm :     0.0017034 Eh/α   predicted    -0.3200785E-04 (  35.16%)
   displ. norm   :     0.0424986 α      lambda       -0.5468003E-05
   maximum displ.:     0.0302127 α      in ANC's #1, #4, #5, ...

........................................................................
.............................. CYCLE   28 ..............................
........................................................................

 iter      E             dE          RMSdq      gap      omega  full diag
   1    -22.4967780 -0.224968E+02  0.252E-02    3.69       0.0  T
   2    -22.4967781 -0.106420E-06  0.158E-02    3.69       1.7  T
   3    -22.4967779  0.249989E-06  0.463E-03    3.69       5.8  T
   4    -22.4967782 -0.333238E-06  0.109E-03    3.69      24.6  T
   5    -22.4967782 -0.238841E-08  0.550E-04    3.69      48.6  T
   6    -22.4967782 -0.408555E-09  0.738E-05    3.69     362.1  T
     SCC iter.                  ...        0 min,  0.003 sec
     gradient                   ...        0 min,  0.001 sec
 * total energy  :   -22.2478781 Eh     change       -0.6589278E-05 Eh
   gradient norm :     0.0041224 Eh/α   predicted    -0.2735938E-05 ( -58.48%)
   displ. norm   :     0.1030814 α      lambda       -0.1883599E-04
   maximum displ.:     0.0689161 α      in ANC's #1, #4, #5, ...

........................................................................
.............................. CYCLE   29 ..............................
........................................................................

 iter      E             dE          RMSdq      gap      omega  full diag
   1    -22.4962991 -0.224963E+02  0.652E-02    3.69       0.0  T
   2    -22.4962998 -0.736720E-06  0.409E-02    3.69       1.0  T
   3    -22.4962974  0.243717E-05  0.139E-02    3.69       1.9  T
   4    -22.4963004 -0.305410E-05  0.278E-03    3.69       9.6  T
   5    -22.4963004 -0.162422E-07  0.143E-03    3.69      18.6  T
   6    -22.4963004 -0.238679E-08  0.236E-04    3.69     113.1  T
   7    -22.4963004 -0.885052E-10  0.678E-05    3.69     394.3  T
     SCC iter.                  ...        0 min,  0.004 sec
     gradient                   ...        0 min,  0.001 sec
 * total energy  :   -22.2478790 Eh     change       -0.9343502E-06 Eh
   gradient norm :     0.0060484 Eh/α   predicted    -0.9518874E-05 ( 918.77%)
   displ. norm   :     0.0436365 α      lambda       -0.2370901E-04
   maximum displ.:     0.0264653 α      in ANC's #4, #1, #5, ...

........................................................................
.............................. CYCLE   30 ..............................
........................................................................

 iter      E             dE          RMSdq      gap      omega  full diag
   1    -22.4967928 -0.224968E+02  0.352E-02    3.69       0.0  T
   2    -22.4967931 -0.247777E-06  0.221E-02    3.69       1.2  T
   3    -22.4967925  0.526739E-06  0.677E-03    3.69       3.9  T
   4    -22.4967932 -0.702097E-06  0.161E-03    3.69      16.6  T
   5    -22.4967933 -0.965242E-08  0.742E-04    3.69      36.0  T
   6    -22.4967933 -0.636099E-09  0.219E-04    3.69     122.2  T
     SCC iter.                  ...        0 min,  0.003 sec
     gradient                   ...        0 min,  0.001 sec
 * total energy  :   -22.2478885 Eh     change       -0.9446544E-05 Eh
   gradient norm :     0.0011996 Eh/α   predicted    -0.1187609E-04 (  25.72%)
   displ. norm   :     0.0412858 α      lambda       -0.4126149E-05
   maximum displ.:     0.0327023 α      in ANC's #1, #4, #5, ...

........................................................................
.............................. CYCLE   31 ..............................
........................................................................

 iter      E             dE          RMSdq      gap      omega  full diag
   1    -22.4967418 -0.224967E+02  0.191E-02    3.69       0.0  T
   2    -22.4967419 -0.385923E-07  0.117E-02    3.69       2.3  T
   3    -22.4967416  0.282973E-06  0.448E-03    3.69       6.0  T
   4    -22.4967419 -0.324624E-06  0.656E-04    3.69      40.7  T
   5    -22.4967419 -0.842096E-09  0.376E-04    3.69      71.0  T
     SCC iter.                  ...        0 min,  0.003 sec
     gradient                   ...        0 min,  0.001 sec
 * total energy  :   -22.2478936 Eh     change       -0.5084902E-05 Eh
   gradient norm :     0.0022349 Eh/α   predicted    -0.2065347E-05 ( -59.38%)
   displ. norm   :     0.0702917 α      lambda       -0.8405223E-05
   maximum displ.:     0.0554274 α      in ANC's #1, #4, #5, ...

........................................................................
.............................. CYCLE   32 ..............................
........................................................................

 iter      E             dE          RMSdq      gap      omega  full diag
   1    -22.4965697 -0.224966E+02  0.330E-02    3.69       0.0  T
   2    -22.4965698 -0.109615E-06  0.203E-02    3.69       1.3  T
   3    -22.4965689  0.940951E-06  0.813E-03    3.69       3.3  T
   4    -22.4965699 -0.107023E-05  0.109E-03    3.69      24.5  T
   5    -22.4965699 -0.209546E-08  0.619E-04    3.69      43.2  T
   6    -22.4965699 -0.424002E-09  0.113E-04    3.69     237.0  T
     SCC iter.                  ...        0 min,  0.003 sec
     gradient                   ...        0 min,  0.001 sec
 * total energy  :   -22.2478986 Eh     change       -0.5015922E-05 Eh
   gradient norm :     0.0019020 Eh/α   predicted    -0.4222418E-05 ( -15.82%)
   displ. norm   :     0.0367360 α      lambda       -0.3800430E-05
   maximum displ.:     0.0297694 α      in ANC's #1, #4, #6, ...

........................................................................
.............................. CYCLE   33 ..............................
........................................................................

 iter      E             dE          RMSdq      gap      omega  full diag
   1    -22.4967373 -0.224967E+02  0.184E-02    3.69       0.0  T
   2    -22.4967373 -0.220136E-07  0.112E-02    3.69       2.4  T
   3    -22.4967371  0.246349E-06  0.408E-03    3.69       6.5  T
   4    -22.4967374 -0.273276E-06  0.453E-04    3.69      59.0  T
   5    -22.4967374 -0.499387E-09  0.246E-04    3.69     108.6  T
     SCC iter.                  ...        0 min,  0.003 sec
     gradient                   ...        0 min,  0.001 sec
 * total energy  :   -22.2479020 Eh     change       -0.3400479E-05 Eh
   gradient norm :     0.0010146 Eh/α   predicted    -0.1900181E-05 ( -44.12%)
   displ. norm   :     0.0469105 α      lambda       -0.1692450E-05
   maximum displ.:     0.0371172 α      in ANC's #1, #4, #5, ...

........................................................................
.............................. CYCLE   34 ..............................
........................................................................

 iter      E             dE          RMSdq      gap      omega  full diag
   1    -22.4966447 -0.224966E+02  0.228E-02    3.69       0.0  T
   2    -22.4966447 -0.528785E-07  0.139E-02    3.69       1.9  T
   3    -22.4966444  0.333169E-06  0.485E-03    3.69       5.5  T
   4    -22.4966448 -0.380668E-06  0.723E-04    3.69      37.0  T
   5    -22.4966448 -0.141918E-08  0.397E-04    3.69      67.3  T
     SCC iter.                  ...        0 min,  0.003 sec
     gradient                   ...        0 min,  0.001 sec
 * total energy  :   -22.2479032 Eh     change       -0.1180862E-05 Eh
   gradient norm :     0.0014665 Eh/α   predicted    -0.8487671E-06 ( -28.12%)
   displ. norm   :     0.0196162 α      lambda       -0.2460539E-05
   maximum displ.:     0.0121802 α      in ANC's #1, #2, #3, ...

........................................................................
.............................. CYCLE   35 ..............................
........................................................................

 iter      E             dE          RMSdq      gap      omega  full diag
   1    -22.4969166 -0.224969E+02  0.117E-02    3.69       0.0  T
   2    -22.4969166 -0.893180E-08  0.695E-03    3.69       3.8  T
   3    -22.4969166 -0.117517E-08  0.461E-04    3.69      58.0  T
   4    -22.4969166 -0.821139E-09  0.308E-04    3.69      86.6  T
     SCC iter.                  ...        0 min,  0.002 sec
     gradient                   ...        0 min,  0.001 sec
 * total energy  :   -22.2479044 Eh     change       -0.1281529E-05 Eh
   gradient norm :     0.0013372 Eh/α   predicted    -0.1231214E-05 (  -3.93%)
   displ. norm   :     0.0135456 α      lambda       -0.7142472E-06
   maximum displ.:     0.0094176 α      in ANC's #1, #4, #5, ...

........................................................................
.............................. CYCLE   36 ..............................
........................................................................

 iter      E             dE          RMSdq      gap      omega  full diag
   1    -22.4968592 -0.224969E+02  0.909E-03    3.69       0.0  T
   2    -22.4968592 -0.112534E-07  0.563E-03    3.69       4.7  T
   3    -22.4968592  0.365922E-08  0.921E-04    3.69      29.0  T
   4    -22.4968592 -0.105028E-07  0.402E-04    3.69      66.5  T
     SCC iter.                  ...        0 min,  0.002 sec
     gradient                   ...        0 min,  0.001 sec
 * total energy  :   -22.2479050 Eh     change       -0.6145373E-06 Eh
   gradient norm :     0.0003989 Eh/α   predicted    -0.3566066E-06 ( -41.97%)
   displ. norm   :     0.0076336 α      lambda       -0.2015442E-06
   maximum displ.:     0.0058481 α      in ANC's #1, #4, #5, ...

   *** GEOMETRY OPTIMIZATION CONVERGED AFTER 36 ITERATIONS ***

------------------------------------------------------------------------
 total energy gain   :        -0.0029834 Eh       -1.8721 kcal/mol
 total RMSD          :         0.4845099 a0        0.2564 Å
 total power (kW/mol):        -0.2175825 (step)  -40.8110 (real)
------------------------------------------------------------------------

 ANCopt (total)                0 d,  0 h,  0 min,  0.192 sec
 optimizer setup                ...        0 min,  0.000 sec (  0.063%)
 model hessian                  ...        0 min,  0.006 sec (  3.069%)
 ANC generation                 ...        0 min,  0.001 sec (  0.373%)
 coordinate transformation      ...        0 min,  0.000 sec (  0.102%)
 single point calculation       ...        0 min,  0.171 sec ( 89.003%)
 optimization log               ...        0 min,  0.003 sec (  1.791%)
 hessian update                 ...        0 min,  0.000 sec (  0.201%)
 rational function              ...        0 min,  0.005 sec (  2.369%)

================
 final structure:
================
14
 xtb: 6.6.1 (8d0f1dd)
O           -2.54858181893218       -0.59261556430661        0.75289703301343
O           -1.32259504865640        0.03514773801329        1.12654171733330
C           -0.59636439803106        0.39400036153924       -0.03026944873617
C            0.56634203959161        1.22007350049402        0.42274431971391
C            1.74646826108260        0.61541402120124        0.05293049505699
C            1.51214542535799       -0.55455567997890       -0.63197518550735
C            0.05096347923354       -0.81028433710359       -0.74915584563807
H           -3.05200609681045       -0.55048896273914        1.57590827281331
H           -1.27003618865932        0.95251853568745       -0.69944781441360
H            0.44484999154448        2.12136513559831        0.99005074195209
H            2.72299433279793        1.01299214142383        0.26909077742108
H            2.25526999461013       -1.21480272379813       -1.03854205580517
H           -0.26877280586639       -0.89051285559939       -1.79072217427810
H           -0.24066716726269       -1.73815131043173       -0.25004083292564

 Bond Distances (Angstroems)
 ---------------------------
O1-O2=1.4271         O1-H8=0.9657         O2-O1=1.4271         O2-C3=1.4122         C3-O2=1.4122         C3-C4=1.4965         
C3-C7=1.5447         C3-H9=1.1016         C4-C3=1.4965         C4-C5=1.3766         C4-H10=1.0719        C5-C4=1.3766         
C5-C6=1.3758         C5-H11=1.0763        C6-C5=1.3758         C6-C7=1.4880         C6-H12=1.0740        C7-C3=1.5447         
C7-C6=1.4880         C7-H13=1.0925        C7-H14=1.0932        H8-O1=0.9657         H9-C3=1.1016         H10-C4=1.0719        
H11-C5=1.0763        H12-C6=1.0740        H13-C7=1.0925        H14-C7=1.0932        
 C  H  Rav=1.0849 sigma=0.0113  Rmin=1.0719  Rmax=1.1016     6
 C  C  Rav=1.4563 sigma=0.0682  Rmin=1.3758  Rmax=1.5447     5
 O  H  Rav=0.9657 sigma=0.0000  Rmin=0.9657  Rmax=0.9657     1
 O  C  Rav=1.4122 sigma=0.0000  Rmin=1.4122  Rmax=1.4122     1
 O  O  Rav=1.4271 sigma=0.0000  Rmin=1.4271  Rmax=1.4271     1

 selected bond angles (degree)
 --------------------
H8-O1-O2=101.86                C3-O2-O1=109.82                C4-C3-O2=106.97                C7-C3-O2=113.49                
C7-C3-C4=104.22                H9-C3-O2=108.18                H9-C3-C4=112.28                H9-C3-C7=111.64                
C5-C4-C3=110.02                H10-C4-C3=122.43               H10-C4-C5=127.49               C6-C5-C4=111.18                
H11-C5-C4=124.17               H11-C5-C6=124.66               C7-C6-C5=110.65                H12-C6-C5=126.40               
H12-C6-C7=122.96               C6-C7-C3=103.94                H13-C7-C3=112.23               H13-C7-C6=112.03               
H14-C7-C3=109.72               H14-C7-C6=111.83               H14-C7-H13=107.15              

 selected dihedral angles (degree)
 ---------------------------------
C3-O2-O1-H8=195.91            C4-C3-O2-O1=171.78            C7-C3-O2-O1=286.15            H9-C3-O2-O1= 50.62            
C5-C4-C3-O2=120.00            C5-C4-C3-C7=359.52            C5-C4-C3-H9=238.52            H10-C4-C3-O2=302.58           
H10-C4-C3-C7=182.10           H10-C4-C3-H9= 61.10           C6-C5-C4-C3=  0.65            C6-C5-C4-H10=177.91           
H11-C5-C4-C3=180.33           H11-C5-C4-H10=357.59          C7-C6-C5-C4=359.46            C7-C6-C5-H11=179.77           
H12-C6-C5-C4=179.46           H12-C6-C5-H11=359.78          C6-C7-C3-O2=244.15            C6-C7-C3-C4=  0.15            
C6-C7-C3-H9=121.57            H13-C7-C3-O2=122.89           H13-C7-C3-C4=238.89           H13-C7-C3-H9=  0.31           
H14-C7-C3-O2=  3.88           H14-C7-C3-C4=119.89           H14-C7-C3-H9=241.31           C3-C7-C6-C5=  0.22            
C3-C7-C6-H12=180.21           H13-C7-C6-C5=121.61           H13-C7-C6-H12=301.60          H14-C7-C6-C5=241.93           
H14-C7-C6-H12= 61.92          
           -------------------------------------------------
          |                Final Singlepoint                |
           -------------------------------------------------

          ...................................................
          :                      SETUP                      :
          :.................................................:
          :  # basis functions                  35          :
          :  # atomic orbitals                  35          :
          :  # shells                           21          :
          :  # electrons                        39          :
          :  max. iterations                   250          :
          :  Hamiltonian                  GFN2-xTB          :
          :  restarted?                      false          :
          :  GBSA solvation                  false          :
          :  PC potential                    false          :
          :  electronic temp.          300.0000000     K    :
          :  accuracy                    1.0000000          :
          :  -> integral cutoff          0.2500000E+02      :
          :  -> integral neglect         0.1000000E-07      :
          :  -> SCF convergence          0.1000000E-05 Eh   :
          :  -> wf. convergence          0.1000000E-03 e    :
          :  Broyden damping             0.4000000          :
          ...................................................

 iter      E             dE          RMSdq      gap      omega  full diag
   1    -22.4968592 -0.224969E+02  0.187E-04    3.69       0.0  T
   2    -22.4968592 -0.417515E-10  0.120E-04    3.69     222.5  T
   3    -22.4968592  0.383693E-12  0.853E-05    3.69     313.3  T

   *** convergence criteria satisfied after 3 iterations ***

         #    Occupation            Energy/Eh            Energy/eV
      -------------------------------------------------------------
         1        2.0000           -0.7177195             -19.5301
       ...           ...                  ...                  ...
        14        2.0000           -0.4627773             -12.5928
        15        2.0000           -0.4590037             -12.4901
        16        2.0000           -0.4546324             -12.3712
        17        2.0000           -0.4510745             -12.2744
        18        2.0000           -0.4322806             -11.7630
        19        2.0000           -0.4033658             -10.9761
        20        1.0000           -0.3170863              -8.6284 (HOMO)
        21                         -0.1815762              -4.9409 (LUMO)
        22                         -0.1396453              -3.7999
        23                          0.0653021               1.7770
        24                          0.0804559               2.1893
        25                          0.1138678               3.0985
       ...                                ...                  ...
        35                          0.6199405              16.8694
      -------------------------------------------------------------
                  HL-Gap            0.1355100 Eh            3.6874 eV
             Fermi-level           -0.3047786 Eh           -8.2934 eV

 SCC (total)                   0 d,  0 h,  0 min,  0.003 sec
 SCC setup                      ...        0 min,  0.000 sec (  2.468%)
 Dispersion                     ...        0 min,  0.000 sec (  1.346%)
 classical contributions        ...        0 min,  0.000 sec (  0.224%)
 integral evaluation            ...        0 min,  0.000 sec (  8.196%)
 iterations                     ...        0 min,  0.002 sec ( 55.279%)
 molecular gradient             ...        0 min,  0.001 sec ( 27.732%)
 printout                       ...        0 min,  0.000 sec (  3.946%)

         :::::::::::::::::::::::::::::::::::::::::::::::::::::
         ::                     SUMMARY                     ::
         :::::::::::::::::::::::::::::::::::::::::::::::::::::
         :: total energy             -22.247905048635 Eh    ::
         :: gradient norm              0.000399444211 Eh/a0 ::
         :: HOMO-LUMO gap              3.687416046400 eV    ::
         ::.................................................::
         :: SCC energy               -22.496859236176 Eh    ::
         :: -> isotropic ES            0.029298398765 Eh    ::
         :: -> anisotropic ES         -0.005024551528 Eh    ::
         :: -> anisotropic XC          0.000488945907 Eh    ::
         :: -> dispersion             -0.008657162187 Eh    ::
         :: repulsion energy           0.248940010097 Eh    ::
         :: add. restraining           0.000002425285 Eh    ::
         :: total charge              -0.000000000000 e     ::
         :::::::::::::::::::::::::::::::::::::::::::::::::::::

           -------------------------------------------------
          |                Property Printout                |
           -------------------------------------------------

    * Orbital Energies and Occupations

         #    Occupation            Energy/Eh            Energy/eV
      -------------------------------------------------------------
         1        2.0000           -0.7177195             -19.5301
       ...           ...                  ...                  ...
         8        2.0000           -0.5690598             -15.4849
         9        2.0000           -0.5463257             -14.8663
        10        2.0000           -0.5418248             -14.7438
        11        2.0000           -0.5184525             -14.1078
        12        2.0000           -0.5111877             -13.9101
        13        2.0000           -0.4771641             -12.9843
        14        2.0000           -0.4627773             -12.5928
        15        2.0000           -0.4590037             -12.4901
        16        2.0000           -0.4546324             -12.3712
        17        2.0000           -0.4510745             -12.2744
        18        2.0000           -0.4322806             -11.7630
        19        2.0000           -0.4033658             -10.9761
        20        1.0000           -0.3170863              -8.6284 (HOMO)
        21                         -0.1815762              -4.9409 (LUMO)
        22                         -0.1396453              -3.7999
        23                          0.0653021               1.7770
        24                          0.0804559               2.1893
        25                          0.1138678               3.0985
        26                          0.1311612               3.5691
        27                          0.1430386               3.8923
        28                          0.1441434               3.9223
        29                          0.1622361               4.4147
        30                          0.2103155               5.7230
        31                          0.2453784               6.6771
       ...                                ...                  ...
        35                          0.6199405              16.8694
      -------------------------------------------------------------
                  HL-Gap            0.1355100 Eh            3.6874 eV
             Fermi-level           -0.3047786 Eh           -8.2934 eV

     #   Z          covCN         q      C6AA      α(0)
     1   8 O        1.734    -0.331    19.543     5.969
     2   8 O        1.778    -0.216    17.579     5.662
     3   6 C        3.774     0.126    18.555     6.138
     4   6 C        2.976    -0.057    29.414     8.896
     5   6 C        2.945    -0.028    28.701     8.787
     6   6 C        2.977    -0.042    29.030     8.838
     7   6 C        3.845    -0.069    21.792     6.640
     8   1 H        0.805     0.318     0.669     1.285
     9   1 H        0.923     0.043     2.403     2.424
    10   1 H        0.926     0.046     2.367     2.406
    11   1 H        0.926     0.041     2.430     2.438
    12   1 H        0.926     0.039     2.457     2.451
    13   1 H        0.924     0.054     2.275     2.359
    14   1 H        0.924     0.076     2.025     2.225

 Mol. C6AA /au·bohr⁶  :       1900.989219
 Mol. C8AA /au·bohr⁸  :      43268.333833
 Mol. α(0) /au        :         66.518557


Wiberg/Mayer (AO) data.
largest (>0.10) Wiberg bond orders for each atom

 ---------------------------------------------------------------------------
     #   Z sym  total        # sym  WBO       # sym  WBO       # sym  WBO
 ---------------------------------------------------------------------------
     1   8 O    1.905 --     2 O    0.966     8 H    0.892
     2   8 O    2.011 --     1 O    0.966     3 C    0.964
     3   6 C    3.940 --     4 C    1.006     7 C    0.979     2 O    0.964
                             9 H    0.940
     4   6 C    3.779 --     5 C    1.484     3 C    1.006    10 H    0.973
                             6 C    0.206
     5   6 C    3.991 --     4 C    1.484     6 C    1.478    11 H    0.968
     6   6 C    3.789 --     5 C    1.478     7 C    1.057    12 H    0.974
                             4 C    0.206
     7   6 C    3.997 --     6 C    1.057     3 C    0.979    13 H    0.952
                            14 H    0.944
     8   1 H    0.899 --     1 O    0.892
     9   1 H    0.998 --     3 C    0.940
    10   1 H    0.998 --     4 C    0.973
    11   1 H    0.997 --     5 C    0.968
    12   1 H    0.998 --     6 C    0.974
    13   1 H    0.997 --     7 C    0.952
    14   1 H    0.994 --     7 C    0.944
 ---------------------------------------------------------------------------

Topologies differ in total number of bonds
Writing topology from bond orders to xtbtopo.mol

molecular dipole:
                 x           y           z       tot (Debye)
 q only:        0.135       0.019      -0.137
   full:       -0.002       0.045      -0.052       0.174
molecular quadrupole (traceless):
                xx          xy          yy          xz          yz          zz
 q only:        1.300       0.129      -0.881      -2.761       0.119      -0.420
  q+dip:        1.582      -1.260      -0.618      -3.818       0.927      -0.964
   full:        1.609      -0.545      -1.295      -3.890       0.253      -0.315

           -------------------------------------------------
          |                Geometry Summary                 |
           -------------------------------------------------

      molecular mass/u    :       99.1080746
   center of mass at/Å    :       -0.2214787       0.0116679       0.1804086
  moments of inertia/u·Å² :        0.7777651E+02   0.2592882E+03   0.3132967E+03
rotational constants/cm⁻¹ :        0.2167445E+00   0.6501503E-01   0.5380724E-01

 * 13 selected distances

     #   Z          #   Z                                           value/Å
     1   8 O        2   8 O                                       1.4271444
     2   8 O        3   6 C                                       1.4122318
     4   6 C        5   6 C                                       1.3766167
     5   6 C        6   6 C                                       1.3758025
     3   6 C        7   6 C                                       1.5447113 (max)
     6   6 C        7   6 C                                       1.4880126
     1   8 O        8   1 H                                       0.9656906 (min)
     3   6 C        9   1 H                                       1.1016243
     4   6 C       10   1 H                                       1.0718786
     5   6 C       11   1 H                                       1.0762885
     6   6 C       12   1 H                                       1.0739912
     7   6 C       13   1 H                                       1.0924873
     7   6 C       14   1 H                                       1.0932070

 * 5 distinct bonds (by element types)

   Z      Z             #   av. dist./Å        max./Å        min./Å
   1 H    6 C           6     1.0849128     1.1016243     1.0718786
   6 C    6 C           4     1.4462858     1.5447113     1.3758025
   1 H    8 O           1     0.9656906     0.9656906     0.9656906
   6 C    8 O           1     1.4122318     1.4122318     1.4122318
   8 O    8 O           1     1.4271444     1.4271444     1.4271444


optimized geometry written to: xtbopt.xyz


           -------------------------------------------------
          | TOTAL ENERGY              -22.247905048635 Eh   |
          | GRADIENT NORM               0.000399444211 Eh/α |
          | HOMO-LUMO GAP               3.687416046400 eV   |
           -------------------------------------------------

------------------------------------------------------------------------
 * finished run on 2025/05/23 at 12:05:43.970     
------------------------------------------------------------------------
 total:
 * wall-time:     0 d,  0 h,  0 min,  0.213 sec
 *  cpu-time:     0 d,  0 h,  0 min,  3.181 sec
 * ratio c/w:    14.913 speedup
 SCF:
 * wall-time:     0 d,  0 h,  0 min,  0.010 sec
 *  cpu-time:     0 d,  0 h,  0 min,  0.149 sec
 * ratio c/w:    15.610 speedup
 ANC optimizer:
 * wall-time:     0 d,  0 h,  0 min,  0.196 sec
 *  cpu-time:     0 d,  0 h,  0 min,  2.935 sec
 * ratio c/w:    14.950 speedup

