
                                 *****************
                                 * O   R   C   A *
                                 *****************

                                            #,                                       
                                            ###                                      
                                            ####                                     
                                            #####                                    
                                            ######                                   
                                           ########,                                 
                                     ,,################,,,,,                         
                               ,,#################################,,                 
                          ,,##########################################,,             
                       ,#########################################, ''#####,          
                    ,#############################################,,   '####,        
                  ,##################################################,,,,####,       
                ,###########''''           ''''###############################       
              ,#####''   ,,,,##########,,,,          '''####'''          '####       
            ,##' ,,,,###########################,,,                        '##       
           ' ,,###''''                  '''############,,,                           
         ,,##''                                '''############,,,,        ,,,,,,###''
      ,#''                                            '''#######################'''  
     '                                                          ''''####''''         
             ,#######,   #######,   ,#######,      ##                                
            ,#'     '#,  ##    ##  ,#'     '#,    #''#        ######   ,####,        
            ##       ##  ##   ,#'  ##            #'  '#       #        #'  '#        
            ##       ##  #######   ##           ,######,      #####,   #    #        
            '#,     ,#'  ##    ##  '#,     ,#' ,#      #,         ##   #,  ,#        
             '#######'   ##     ##  '#######'  #'      '#     #####' # '####'        



                  #######################################################
                  #                        -***-                        #
                  #          Department of theory and spectroscopy      #
                  #    Directorship and core code : Frank Neese         #
                  #        Max Planck Institute fuer Kohlenforschung    #
                  #                Kaiser Wilhelm Platz 1               #
                  #                 D-45470 Muelheim/Ruhr               #
                  #                      Germany                        #
                  #                                                     #
                  #                  All rights reserved                #
                  #                        -***-                        #
                  #######################################################


                         Program Version 5.0.4 -  RELEASE  -


 With contributions from (in alphabetic order):
   Daniel Aravena         : Magnetic Suceptibility
   Michael Atanasov       : Ab Initio Ligand Field Theory (pilot matlab implementation)
   Alexander A. Auer      : GIAO ZORA, VPT2 properties, NMR spectrum
   Ute Becker             : Parallelization
   Giovanni Bistoni       : ED, misc. LED, open-shell LED, HFLD
   Martin Brehm           : Molecular dynamics
   Dmytro Bykov           : SCF Hessian
   Vijay G. Chilkuri      : MRCI spin determinant printing, contributions to CSF-ICE
   Dipayan Datta          : RHF DLPNO-CCSD density
   Achintya Kumar Dutta   : EOM-CC, STEOM-CC
   Dmitry Ganyushin       : Spin-Orbit,Spin-Spin,Magnetic field MRCI
   Miquel Garcia          : C-PCM and meta-GGA Hessian, CC/C-PCM, Gaussian charge scheme
   Yang Guo               : DLPNO-NEVPT2, F12-NEVPT2, CIM, IAO-localization
   Andreas Hansen         : Spin unrestricted coupled pair/coupled cluster methods
   Benjamin Helmich-Paris : MC-RPA, TRAH-SCF, COSX integrals
   Lee Huntington         : MR-EOM, pCC
   Robert Izsak           : Overlap fitted RIJCOSX, COSX-SCS-MP3, EOM
   Marcus Kettner         : VPT2
   Christian Kollmar      : KDIIS, OOCD, Brueckner-CCSD(T), CCSD density, CASPT2, CASPT2-K
   Simone Kossmann        : Meta GGA functionals, TD-DFT gradient, OOMP2, MP2 Hessian
   Martin Krupicka        : Initial AUTO-CI
   Lucas Lang             : DCDCAS
   Marvin Lechner         : AUTO-CI (C++ implementation), FIC-MRCC
   Dagmar Lenk            : GEPOL surface, SMD
   Dimitrios Liakos       : Extrapolation schemes; Compound Job, initial MDCI parallelization
   Dimitrios Manganas     : Further ROCIS development; embedding schemes
   Dimitrios Pantazis     : SARC Basis sets
   Anastasios Papadopoulos: AUTO-CI, single reference methods and gradients
   Taras Petrenko         : DFT Hessian,TD-DFT gradient, ASA, ECA, R-Raman, ABS, FL, XAS/XES, NRVS
   Peter Pinski           : DLPNO-MP2, DLPNO-MP2 Gradient
   Christoph Reimann      : Effective Core Potentials
   Marius Retegan         : Local ZFS, SOC
   Christoph Riplinger    : Optimizer, TS searches, QM/MM, DLPNO-CCSD(T), (RO)-DLPNO pert. Triples
   Tobias Risthaus        : Range-separated hybrids, TD-DFT gradient, RPA, STAB
   Michael Roemelt        : Original ROCIS implementation
   Masaaki Saitow         : Open-shell DLPNO-CCSD energy and density
   Barbara Sandhoefer     : DKH picture change effects
   Avijit Sen             : IP-ROCIS
   Kantharuban Sivalingam : CASSCF convergence, NEVPT2, FIC-MRCI
   Bernardo de Souza      : ESD, SOC TD-DFT
   Georgi Stoychev        : AutoAux, RI-MP2 NMR, DLPNO-MP2 response
   Willem Van den Heuvel  : Paramagnetic NMR
   Boris Wezisla          : Elementary symmetry handling
   Frank Wennmohs         : Technical directorship


 We gratefully acknowledge several colleagues who have allowed us to
 interface, adapt or use parts of their codes:
   Stefan Grimme, W. Hujo, H. Kruse, P. Pracht,  : VdW corrections, initial TS optimization,
                  C. Bannwarth, S. Ehlert          DFT functionals, gCP, sTDA/sTD-DF
   Ed Valeev, F. Pavosevic, A. Kumar             : LibInt (2-el integral package), F12 methods
   Garnet Chan, S. Sharma, J. Yang, R. Olivares  : DMRG
   Ulf Ekstrom                                   : XCFun DFT Library
   Mihaly Kallay                                 : mrcc  (arbitrary order and MRCC methods)
   Jiri Pittner, Ondrej Demel                    : Mk-CCSD
   Frank Weinhold                                : gennbo (NPA and NBO analysis)
   Christopher J. Cramer and Donald G. Truhlar   : smd solvation model
   Lars Goerigk                                  : TD-DFT with DH, B97 family of functionals
   V. Asgeirsson, H. Jonsson                     : NEB implementation
   FAccTs GmbH                                   : IRC, NEB, NEB-TS, DLPNO-Multilevel, CI-OPT
                                                   MM, QMMM, 2- and 3-layer-ONIOM, Crystal-QMMM,
                                                   LR-CPCM, SF, NACMEs, symmetry and pop. for TD-DFT,
                                                   nearIR, NL-DFT gradient (VV10), updates on ESD,
                                                   ML-optimized integration grids
   S Lehtola, MJT Oliveira, MAL Marques          : LibXC Library
   Liviu Ungur et al                             : ANISO software


 Your calculation uses the libint2 library for the computation of 2-el integrals
 For citations please refer to: http://libint.valeyev.net

 Your ORCA version has been built with support for libXC version: 5.1.0
 For citations please refer to: https://tddft.org/programs/libxc/

 This ORCA versions uses:
   CBLAS   interface :  Fast vector & matrix operations
   LAPACKE interface :  Fast linear algebra routines
   SCALAPACK package :  Parallel linear algebra routines
   Shared memory     :  Shared parallel matrices
   BLAS/LAPACK       :  OpenBLAS 0.3.15  USE64BITINT DYNAMIC_ARCH NO_AFFINITY SkylakeX SINGLE_THREADED
        Core in use  :  SkylakeX
   Copyright (c) 2011-2014, The OpenBLAS Project


Your calculation utilizes the atom-pairwise dispersion correction
with the Becke-Johnson damping scheme (D3BJ)
Cite in your paper:
S.Grimme, S.Ehrlich, L.Goerigk, J Comput Chem, (2011), 32, 1456–1465 
S.Grimme, J.Antony, S.Ehrlich and H.Krieg, J.Chem.Phys., 132, (2010), 154104 
   

================================================================================

----- Orbital basis set information -----
Your calculation utilizes the basis: def2-SVP
   F. Weigend and R. Ahlrichs, Phys. Chem. Chem. Phys. 7, 3297 (2005).

----- AuxJ basis set information -----
Your calculation utilizes the auxiliary basis: def2/J
   F. Weigend, Phys. Chem. Chem. Phys. 8, 1057 (2006).

================================================================================
                                        WARNINGS
                       Please study these warnings very carefully!
================================================================================


WARNING: your system is open-shell and RHF/RKS was chosen
  ===> : WILL SWITCH to UHF/UKS


WARNING: Geometry Optimization
  ===> : Switching off AutoStart
         For restart on a previous wavefunction, please use MOREAD

INFO   : the flag for use of the SHARK integral package has been found!

================================================================================
                                       INPUT FILE
================================================================================
NAME = path_opt3_orca.inp
|  1> ! LooseOpt PBE0 RIJCOSX D3BJ def2-SVP def2/J 
|  2> %geom Constraints
|  3> { B 1 5 2.484367860973841 C }
|  4> { B 0 1 1.7910147621859476 C }
|  5>     end
|  6> end
|  7> %geom MaxIter 50 end
|  8> %output 
|  9> xyzfile=True 
| 10> end 
| 11> %scf 
| 12> maxiter 250 
| 13> end
| 14> %output
| 15> Print[P_Hirshfeld] = 1
| 16> end
| 17> % maxcore
| 18> 4000
| 19> %pal nprocs 8
| 20> end
| 21> *xyz 0 2
| 22> O   -2.27618691  -0.87760768   0.95343229 
| 23> O   -0.86951059   0.12748405   1.06380736 
| 24> C   -0.65441022   0.57249763  -0.23659251 
| 25> C    0.54120041   1.40417219   0.13698452 
| 26> C    1.61561069   0.51893478   0.21333716 
| 27> C    1.22859760  -0.71136806  -0.29489355 
| 28> C   -0.09092662  -0.62249127  -0.98514238 
| 29> H   -2.21366149  -1.13675879   1.88469269 
| 30> H   -1.52548913   1.09101531  -0.66653633 
| 31> H    0.48807406   2.42758248   0.50662438 
| 32> H    2.59272180   0.74133682   0.64561343 
| 33> H    1.86794488  -1.59697190  -0.31169462 
| 34> H    0.04212177  -0.44545400  -2.06855955 
| 35> H   -0.74608621  -1.49227156  -0.84107289 
| 36> *
| 37> 
| 38>                          ****END OF INPUT****
================================================================================

                       *****************************
                       * Geometry Optimization Run *
                       *****************************

Geometry optimization settings:
Update method            Update   .... BFGS
Choice of coordinates    CoordSys .... Z-matrix Internals
Initial Hessian          InHess   .... Almoef's Model

Convergence Tolerances:
Energy Change            TolE     ....  3.0000e-05 Eh
Max. Gradient            TolMAXG  ....  2.0000e-03 Eh/bohr
RMS Gradient             TolRMSG  ....  5.0000e-04 Eh/bohr
Max. Displacement        TolMAXD  ....  1.0000e-02 bohr
RMS Displacement         TolRMSD  ....  7.0000e-03 bohr
Strict Convergence                ....  False
------------------------------------------------------------------------------
                        ORCA OPTIMIZATION COORDINATE SETUP
------------------------------------------------------------------------------

The optimization will be done in new redundant internal coordinates
Making redundant internal coordinates   ...  (new redundants) done
Evaluating the initial hessian          ...  (Almloef) done
Evaluating the coordinates              ...  done
Calculating the B-matrix                .... done
Calculating the G-matrix                .... done
Diagonalizing the G-matrix              .... done
Imposing constraints:
 Iter   0:  RMS(Cart)=    0.0477803048 RMS(Int)=    0.0511216452
 Iter   1:  RMS(Cart)=    0.0126890291 RMS(Int)=    0.0128531898
 Iter   2:  RMS(Cart)=    0.0031919711 RMS(Int)=    0.0032324292
 Iter   3:  RMS(Cart)=    0.0008028757 RMS(Int)=    0.0008129710
 Iter   4:  RMS(Cart)=    0.0002019352 RMS(Int)=    0.0002044693
 Iter   5:  RMS(Cart)=    0.0000507890 RMS(Int)=    0.0000514260
 Iter   6:  RMS(Cart)=    0.0000127740 RMS(Int)=    0.0000129342
 Iter   7:  RMS(Cart)=    0.0000032128 RMS(Int)=    0.0000032531
 Iter   8:  RMS(Cart)=    0.0000008080 RMS(Int)=    0.0000008182
 Iter   9:  RMS(Cart)=    0.0000002032 RMS(Int)=    0.0000002058
 Iter  10:  RMS(Cart)=    0.0000000511 RMS(Int)=    0.0000000518
CONVERGED
The first mode is                       ....   35
The number of degrees of freedom        ....   36
Storing new coordinates                 .... done

    -----------------------------------------------------------------
                    Redundant Internal Coordinates


    -----------------------------------------------------------------
         Definition                    Initial Value    Approx d2E/dq
    -----------------------------------------------------------------
      1. B(O   1,O   0)                  1.7910         0.142486 C 
      2. B(C   2,O   1)                  1.3668         0.557204   
      3. B(C   3,C   2)                  1.4983         0.411664   
      4. B(C   4,C   3)                  1.3791         0.615199   
      5. B(C   5,O   1)                  2.4844         0.005741 C 
      6. B(C   5,C   4)                  1.3807         0.633435   
      7. B(C   6,C   2)                  1.4959         0.389697   
      8. B(C   6,C   5)                  1.4757         0.429846   
      9. B(H   7,O   0)                  0.9696         0.503663   
     10. B(H   8,C   2)                  1.1012         0.345671   
     11. B(H   9,C   3)                  1.0895         0.360875   
     12. B(H  10,C   4)                  1.0916         0.358302   
     13. B(H  11,C   5)                  1.0931         0.356937   
     14. B(H  12,C   6)                  1.1064         0.339769   
     15. B(H  13,C   6)                  1.0988         0.349143   
     16. A(O   1,O   0,H   7)           92.3542         0.287405   
     17. A(O   0,O   1,C   2)          104.5211         0.324518   
     18. A(O   1,C   2,C   3)           92.9236         0.393483   
     19. A(C   3,C   2,C   6)          107.4420         0.372142   
     20. A(O   1,C   2,C   6)          102.3492         0.389727   
     21. A(C   3,C   2,H   8)          116.9219         0.327331   
     22. A(C   6,C   2,H   8)          117.8482         0.324391   
     23. A(O   1,C   2,H   8)          115.7795         0.342133   
     24. A(C   2,C   3,C   4)          104.7262         0.402967   
     25. A(C   2,C   3,H   9)          125.3233         0.329664   
     26. A(C   4,C   3,H   9)          128.1224         0.352573   
     27. A(C   5,C   4,H  10)          125.4725         0.353892   
     28. A(C   3,C   4,C   5)          108.4537         0.435135   
     29. A(C   3,C   4,H  10)          125.9651         0.352147   
     30. A(C   4,C   5,C   6)          113.1510         0.408157   
     31. A(C   4,C   5,H  11)          123.2720         0.353664   
     32. A(C   6,C   5,H  11)          123.0104         0.331427   
     33. A(H  12,C   6,H  13)          108.7488         0.286814   
     34. A(C   2,C   6,H  12)          114.3829         0.323475   
     35. A(C   5,C   6,H  12)          112.1718         0.328738   
     36. A(C   2,C   6,H  13)          110.2405         0.324924   
     37. A(C   2,C   6,C   5)           96.2213         0.374925   
     38. A(C   5,C   6,H  13)          114.7750         0.330219   
     39. D(C   2,O   1,O   0,H   7)    175.3861         0.002781   
     40. D(C   3,C   2,O   1,O   0)    178.0636         0.026920   
     41. D(C   6,C   2,O   1,O   0)    -73.3690         0.026920   
     42. D(H   8,C   2,O   1,O   0)     56.1837         0.026920   
     43. D(C   4,C   3,C   2,O   1)     77.4173         0.012548   
     44. D(C   4,C   3,C   2,C   6)    -26.4996         0.012548   
     45. D(H   9,C   3,C   2,H   8)     32.7682         0.012548   
     46. D(H   9,C   3,C   2,O   1)    -88.1852         0.012548   
     47. D(C   4,C   3,C   2,H   8)   -161.6292         0.012548   
     48. D(H   9,C   3,C   2,C   6)    167.8979         0.012548   
     49. D(C   5,C   4,C   3,C   2)      9.0900         0.026165   
     50. D(C   5,C   4,C   3,H   9)    174.1458         0.026165   
     51. D(H  10,C   4,C   3,C   2)   -167.2757         0.026165   
     52. D(H  10,C   4,C   3,H   9)     -2.2200         0.026165   
     53. D(C   6,C   5,C   4,C   3)     11.9104         0.030259   
     54. D(C   6,C   5,C   4,H  10)   -171.7015         0.030259   
     55. D(H  11,C   5,C   4,C   3)   -176.4989         0.030259   
     56. D(H  11,C   5,C   4,H  10)     -0.1108         0.030259   
     57. D(H  12,C   6,C   5,H  11)    -78.5222         0.014607   
     58. D(C   5,C   6,C   2,C   3)     30.5300         0.012074   
     59. D(C   5,C   6,C   2,H   8)    165.1779         0.012074   
     60. D(H  13,C   6,C   2,H   8)    -75.5158         0.012074   
     61. D(H  12,C   6,C   2,C   3)    -87.2583         0.012074   
     62. D(H  12,C   6,C   2,H   8)     47.3896         0.012074   
     63. D(H  13,C   6,C   2,O   1)     52.7412         0.012074   
     64. D(H  12,C   6,C   2,O   1)    175.6466         0.012074   
     65. D(H  13,C   6,C   2,C   3)    149.8363         0.012074   
     66. D(C   2,C   6,C   5,C   4)    -26.4351         0.014607   
     67. D(C   2,C   6,C   5,H  11)    161.9490         0.014607   
     68. D(C   5,C   6,C   2,O   1)    -66.5650         0.012074   
     69. D(H  12,C   6,C   5,C   4)     93.0937         0.014607   
     70. D(H  13,C   6,C   5,C   4)   -142.1315         0.014607   
     71. D(H  13,C   6,C   5,H  11)     46.2526         0.014607   
    -----------------------------------------------------------------

Number of atoms                         .... 14
Number of degrees of freedom            .... 71

         *************************************************************
         *                GEOMETRY OPTIMIZATION CYCLE   1            *
         *************************************************************
---------------------------------
CARTESIAN COORDINATES (ANGSTROEM)
---------------------------------
  O     -2.244500   -0.925890    0.929871
  O     -0.793823    0.120618    1.019828
  C     -0.631062    0.590932   -0.253130
  C      0.553866    1.426319    0.124968
  C      1.598260    0.530686    0.219980
  C      1.172429   -0.690174   -0.264132
  C     -0.117894   -0.613894   -0.976166
  H     -2.147765   -1.207463    1.852595
  H     -1.496580    1.118897   -0.682947
  H      0.510609    2.450617    0.493569
  H      2.576256    0.730800    0.661724
  H      1.792628   -1.590184   -0.250236
  H      0.014054   -0.471163   -2.065324
  H     -0.786479   -1.470000   -0.810601

----------------------------
CARTESIAN COORDINATES (A.U.)
----------------------------
  NO LB      ZA    FRAG     MASS         X           Y           Z
   0 O     8.0000    0    15.999   -4.241490   -1.749678    1.757201
   1 O     8.0000    0    15.999   -1.500108    0.227934    1.927196
   2 C     6.0000    0    12.011   -1.192534    1.116699   -0.478346
   3 C     6.0000    0    12.011    1.046655    2.695352    0.236156
   4 C     6.0000    0    12.011    3.020273    1.002852    0.415702
   5 C     6.0000    0    12.011    2.215571   -1.304239   -0.499137
   6 C     6.0000    0    12.011   -0.222787   -1.160092   -1.844687
   7 H     1.0000    0     1.008   -4.058688   -2.281775    3.500897
   8 H     1.0000    0     1.008   -2.828126    2.114409   -1.290582
   9 H     1.0000    0     1.008    0.964912    4.630994    0.932711
  10 H     1.0000    0     1.008    4.868417    1.381011    1.250478
  11 H     1.0000    0     1.008    3.387577   -3.005012   -0.472878
  12 H     1.0000    0     1.008    0.026558   -0.890369   -3.902897
  13 H     1.0000    0     1.008   -1.486231   -2.777898   -1.531813

--------------------------------
INTERNAL COORDINATES (ANGSTROEM)
--------------------------------
 O      0   0   0     0.000000000000     0.00000000     0.00000000
 O      1   0   0     1.732377069532     0.00000000     0.00000000
 C      2   1   0     1.391166804325   104.57127702     0.00000000
 C      3   2   1     1.503571464768    93.87843098   178.80859362
 C      4   3   2     1.394213917399   105.97304276    80.77565338
 C      5   4   3     1.386262119706   109.16480913     9.99398574
 C      6   5   4     1.491806521733   111.32727763    10.84124962
 H      1   2   3     0.968666433076    92.38148951   175.34082705
 H      3   2   1     1.101131572645   113.15988050    56.35833580
 H      4   3   2     1.089414823124   124.41235905   274.34960036
 H      5   4   3     1.091362250715   125.60885229   192.58533399
 H      6   5   4     1.092401657734   124.17576658   182.83984504
 H      7   6   5     1.105819530168   110.88147999    93.54955654
 H      7   6   5     1.098411516323   114.81657788   217.74733524

---------------------------
INTERNAL COORDINATES (A.U.)
---------------------------
 O      0   0   0     0.000000000000     0.00000000     0.00000000
 O      1   0   0     3.273718222101     0.00000000     0.00000000
 C      2   1   0     2.628924266776   104.57127702     0.00000000
 C      3   2   1     2.841338291190    93.87843098   178.80859362
 C      4   3   2     2.634682475985   105.97304276    80.77565338
 C      5   4   3     2.619655756073   109.16480913     9.99398574
 C      6   5   4     2.819105770872   111.32727763    10.84124962
 H      1   2   3     1.830514273636    92.38148951   175.34082705
 H      3   2   1     2.080837109713   113.15988050    56.35833580
 H      4   3   2     2.058695661939   124.41235905   274.34960036
 H      5   4   3     2.062375766752   125.60885229   192.58533399
 H      6   5   4     2.064339961358   124.17576658   182.83984504
 H      7   6   5     2.089696065559   110.88147999    93.54955654
 H      7   6   5     2.075696948195   114.81657788   217.74733524

---------------------
BASIS SET INFORMATION
---------------------
There are 3 groups of distinct atoms

 Group   1 Type O   : 7s4p1d contracted to 3s2p1d pattern {511/31/1}
 Group   2 Type C   : 7s4p1d contracted to 3s2p1d pattern {511/31/1}
 Group   3 Type H   : 4s1p contracted to 2s1p pattern {31/1}

Atom   0O    basis set group =>   1
Atom   1O    basis set group =>   1
Atom   2C    basis set group =>   2
Atom   3C    basis set group =>   2
Atom   4C    basis set group =>   2
Atom   5C    basis set group =>   2
Atom   6C    basis set group =>   2
Atom   7H    basis set group =>   3
Atom   8H    basis set group =>   3
Atom   9H    basis set group =>   3
Atom  10H    basis set group =>   3
Atom  11H    basis set group =>   3
Atom  12H    basis set group =>   3
Atom  13H    basis set group =>   3
---------------------------------
AUXILIARY/J BASIS SET INFORMATION
---------------------------------
There are 3 groups of distinct atoms

 Group   1 Type O   : 12s5p4d2f1g contracted to 6s4p3d1f1g pattern {711111/2111/211/2/1}
 Group   2 Type C   : 12s5p4d2f1g contracted to 6s4p3d1f1g pattern {711111/2111/211/2/1}
 Group   3 Type H   : 5s2p1d contracted to 3s1p1d pattern {311/2/1}

Atom   0O    basis set group =>   1
Atom   1O    basis set group =>   1
Atom   2C    basis set group =>   2
Atom   3C    basis set group =>   2
Atom   4C    basis set group =>   2
Atom   5C    basis set group =>   2
Atom   6C    basis set group =>   2
Atom   7H    basis set group =>   3
Atom   8H    basis set group =>   3
Atom   9H    basis set group =>   3
Atom  10H    basis set group =>   3
Atom  11H    basis set group =>   3
Atom  12H    basis set group =>   3
Atom  13H    basis set group =>   3


           ************************************************************
           *        Program running with 8 parallel MPI-processes     *
           *              working on a common directory               *
           ************************************************************
------------------------------------------------------------------------------
                           ORCA GTO INTEGRAL CALCULATION
                           -- RI-GTO INTEGRALS CHOSEN --
------------------------------------------------------------------------------
------------------------------------------------------------------------------
                   ___                                                        
                  /   \      - P O W E R E D   B Y -                         
                 /     \                                                     
                 |  |  |   _    _      __       _____    __    __             
                 |  |  |  | |  | |    /  \     |  _  \  |  |  /  |          
                  \  \/   | |  | |   /    \    | | | |  |  | /  /          
                 / \  \   | |__| |  /  /\  \   | |_| |  |  |/  /          
                |  |  |   |  __  | /  /__\  \  |    /   |      \           
                |  |  |   | |  | | |   __   |  |    \   |  |\   \          
                \     /   | |  | | |  |  |  |  | |\  \  |  | \   \       
                 \___/    |_|  |_| |__|  |__|  |_| \__\ |__|  \__/        
                                                                              
                      - O R C A' S   B I G   F R I E N D -                    
                                      &                                       
                       - I N T E G R A L  F E E D E R -                       
                                                                              
 v1 FN, 2020, v2 2021                                                         
------------------------------------------------------------------------------


Reading SHARK input file path_opt3_orca.SHARKINP.tmp ... ok
----------------------
SHARK INTEGRAL PACKAGE
----------------------

Number of atoms                             ...     14
Number of basis functions                   ...    133
Number of shells                            ...     63
Maximum angular momentum                    ...      2
Integral batch strategy                     ... SHARK/LIBINT Hybrid
RI-J (if used) integral strategy            ... SPLIT-RIJ (Revised 2003 algorithm where possible)
Printlevel                                  ...      1
Contraction scheme used                     ... SEGMENTED contraction
Coulomb Range Separation                    ... NOT USED
Exchange Range Separation                   ... NOT USED
Finite Nucleus Model                        ... NOT USED
Auxiliary Coulomb fitting basis             ... AVAILABLE
   # of basis functions in Aux-J            ...    420
   # of shells in Aux-J                     ...    140
   Maximum angular momentum in Aux-J        ...      4
Auxiliary J/K fitting basis                 ... NOT available
Auxiliary Correlation fitting basis         ... NOT available
Auxiliary 'external' fitting basis          ... NOT available
Integral threshold                          ...     2.500000e-11
Primitive cut-off                           ...     2.500000e-12
Primitive pair pre-selection threshold      ...     2.500000e-12

Calculating pre-screening integrals         ... done (  0.0 sec) Dimension = 63
Organizing shell pair data                  ... done (  0.0 sec)
Shell pair information
Total number of shell pairs                 ...      2016
Shell pairs after pre-screening             ...      1964
Total number of primitive shell pairs       ...      7252
Primitive shell pairs kept                  ...      5393
          la=0 lb=0:    607 shell pairs
          la=1 lb=0:    719 shell pairs
          la=1 lb=1:    227 shell pairs
          la=2 lb=0:    238 shell pairs
          la=2 lb=1:    145 shell pairs
          la=2 lb=2:     28 shell pairs

Calculating one electron integrals          ... done (  0.0 sec)
Calculating RI/J V-Matrix + Cholesky decomp.... done (  0.0 sec)
Calculating Nuclear repulsion               ... done (  0.0 sec) ENN=    304.110421321314 Eh

SHARK setup successfully completed in   0.1 seconds

Maximum memory used throughout the entire GTOINT-calculation: 10.7 MB


           ************************************************************
           *        Program running with 8 parallel MPI-processes     *
           *              working on a common directory               *
           ************************************************************
-------------------------------------------------------------------------------
                                 ORCA SCF
-------------------------------------------------------------------------------

------------
SCF SETTINGS
------------
Hamiltonian:
 Density Functional     Method          .... DFT(GTOs)
 Exchange Functional    Exchange        .... PBE
   PBE kappa parameter   XKappa         ....  0.804000
   PBE mue parameter    XMuePBE         ....  0.219520
 Correlation Functional Correlation     .... PBE
   PBE beta parameter  CBetaPBE         ....  0.066725
 LDA part of GGA corr.  LDAOpt          .... PW91-LDA
 Gradients option       PostSCFGGA      .... off
 Hybrid DFT is turned on
   Fraction HF Exchange ScalHFX         ....  0.250000
   Scaling of DF-GGA-X  ScalDFX         ....  0.750000
   Scaling of DF-GGA-C  ScalDFC         ....  1.000000
   Scaling of DF-LDA-C  ScalLDAC        ....  1.000000
   Perturbative correction              ....  0.000000
   Density functional embedding theory  .... OFF
   NL short-range parameter             ....  6.900000
 RI-approximation to the Coulomb term is turned on
   Number of AuxJ basis functions       .... 420
   RIJ-COSX (HFX calculated with COS-X)).... on


General Settings:
 Integral files         IntName         .... path_opt3_orca
 Hartree-Fock type      HFTyp           .... UHF
 Total Charge           Charge          ....    0
 Multiplicity           Mult            ....    2
 Number of Electrons    NEL             ....   53
 Basis Dimension        Dim             ....  133
 Nuclear Repulsion      ENuc            ....    304.1104213213 Eh

Convergence Acceleration:
 DIIS                   CNVDIIS         .... on
   Start iteration      DIISMaxIt       ....    12
   Startup error        DIISStart       ....  0.200000
   # of expansion vecs  DIISMaxEq       ....     5
   Bias factor          DIISBfac        ....   1.050
   Max. coefficient     DIISMaxC        ....  10.000
 Trust-Rad. Augm. Hess. CNVTRAH         .... auto
   Auto Start mean grad. ratio tolernc. ....  1.125000
   Auto Start start iteration           ....    20
   Auto Start num. interpolation iter.  ....    10
   Max. Number of Micro iterations      ....    16
   Max. Number of Macro iterations      .... Maxiter - #DIIS iter
   Number of Davidson start vectors     ....     2
   Converg. threshold I  (grad. norm)   ....   1.000e-05
   Converg. threshold II (energy diff.) ....   1.000e-08
   Grad. Scal. Fac. for Micro threshold ....   0.100
   Minimum threshold for Micro iter.    ....   0.010
   NR start threshold (gradient norm)   ....   0.001
   Initial trust radius                 ....   0.400
   Minimum AH scaling param. (alpha)    ....   1.000
   Maximum AH scaling param. (alpha)    .... 1000.000
   Orbital update algorithm             .... Taylor
   White noise on init. David. guess    .... on
   Maximum white noise                  ....   0.010
   Quad. conv. algorithm                .... NR
 SOSCF                  CNVSOSCF        .... off
 Level Shifting         CNVShift        .... on
   Level shift para.    LevelShift      ....    0.2500
   Turn off err/grad.   ShiftErr        ....    0.0010
 Zerner damping         CNVZerner       .... off
 Static damping         CNVDamp         .... on
   Fraction old density DampFac         ....    0.7000
   Max. Damping (<1)    DampMax         ....    0.9800
   Min. Damping (>=0)   DampMin         ....    0.0000
   Turn off err/grad.   DampErr         ....    0.1000
 Fernandez-Rico         CNVRico         .... off

SCF Procedure:
 Maximum # iterations   MaxIter         ....   250
 SCF integral mode      SCFMode         .... Direct
   Integral package                     .... SHARK and LIBINT hybrid scheme
 Reset frequency        DirectResetFreq ....    20
 Integral Threshold     Thresh          ....  2.500e-11 Eh
 Primitive CutOff       TCut            ....  2.500e-12 Eh

Convergence Tolerance:
 Convergence Check Mode ConvCheckMode   .... Total+1el-Energy
 Convergence forced     ConvForced      .... 0
 Energy Change          TolE            ....  1.000e-08 Eh
 1-El. energy change                    ....  1.000e-05 Eh
 DIIS Error             TolErr          ....  5.000e-07


Diagonalization of the overlap matrix:
Smallest eigenvalue                        ... 8.233e-04
Time for diagonalization                   ...    0.003 sec
Threshold for overlap eigenvalues          ... 1.000e-08
Number of eigenvalues below threshold      ... 0
Time for construction of square roots      ...    0.001 sec
Total time needed                          ...    0.004 sec

Time for model grid setup =    0.043 sec

------------------------------
INITIAL GUESS: MODEL POTENTIAL
------------------------------
Loading Hartree-Fock densities                     ... done
Calculating cut-offs                               ... done
Initializing the effective Hamiltonian             ... done
Setting up the integral package (SHARK)            ... done
Starting the Coulomb interaction                   ... done (   0.0 sec)
Reading the grid                                   ... done
Mapping shells                                     ... done
Starting the XC term evaluation                    ... done (   0.0 sec)
  promolecular density results
     # of electrons  =     52.996287389
     EX              =    -43.870421881
     EC              =     -1.756979250
     EX+EC           =    -45.627401131
Transforming the Hamiltonian                       ... done (   0.0 sec)
Diagonalizing the Hamiltonian                      ... done (   0.0 sec)
Back transforming the eigenvectors                 ... done (   0.0 sec)
Now organizing SCF variables                       ... done
                      ------------------
                      INITIAL GUESS DONE (   0.1 sec)
                      ------------------
-------------------
DFT GRID GENERATION
-------------------

General Integration Accuracy     IntAcc      ... 4.388
Radial Grid Type                 RadialGrid  ... OptM3 with GC (2021)
Angular Grid (max. ang.)         AngularGrid ... 4 (Lebedev-302)
Angular grid pruning method      GridPruning ... 4 (adaptive)
Weight generation scheme         WeightScheme... Becke
Basis function cutoff            BFCut       ... 1.0000e-11
Integration weight cutoff        WCut        ... 1.0000e-14
Angular grids for H and He will be reduced by one unit
Partially contracted basis set               ... off
Rotationally invariant grid construction     ... off

Total number of grid points                  ...    64838
Total number of batches                      ...     1020
Average number of points per batch           ...       63
Average number of grid points per atom       ...     4631
Time for grid setup =    0.246 sec

--------------------
COSX GRID GENERATION
--------------------

GRIDX 1
-------
General Integration Accuracy     IntAcc      ... 3.816
Radial Grid Type                 RadialGrid  ... OptM3 with GC (2021)
Angular Grid (max. ang.)         AngularGrid ... 1 (Lebedev-50)
Angular grid pruning method      GridPruning ... 4 (adaptive)
Weight generation scheme         WeightScheme... Becke
Basis function cutoff            BFCut       ... 1.0000e-11
Integration weight cutoff        WCut        ... 1.0000e-14
Angular grids for H and He will be reduced by one unit
Partially contracted basis set               ... on
Rotationally invariant grid construction     ... off

Total number of grid points                  ...     8288
Total number of batches                      ...      136
Average number of points per batch           ...       60
Average number of grid points per atom       ...      592
UseSFitting                                  ... on

GRIDX 2
-------
General Integration Accuracy     IntAcc      ... 4.020
Radial Grid Type                 RadialGrid  ... OptM3 with GC (2021)
Angular Grid (max. ang.)         AngularGrid ... 2 (Lebedev-110)
Angular grid pruning method      GridPruning ... 4 (adaptive)
Weight generation scheme         WeightScheme... Becke
Basis function cutoff            BFCut       ... 1.0000e-11
Integration weight cutoff        WCut        ... 1.0000e-14
Angular grids for H and He will be reduced by one unit
Partially contracted basis set               ... on
Rotationally invariant grid construction     ... off

Total number of grid points                  ...    18033
Total number of batches                      ...      288
Average number of points per batch           ...       62
Average number of grid points per atom       ...     1288
UseSFitting                                  ... on

GRIDX 3
-------
General Integration Accuracy     IntAcc      ... 4.338
Radial Grid Type                 RadialGrid  ... OptM3 with GC (2021)
Angular Grid (max. ang.)         AngularGrid ... 3 (Lebedev-194)
Angular grid pruning method      GridPruning ... 4 (adaptive)
Weight generation scheme         WeightScheme... Becke
Basis function cutoff            BFCut       ... 1.0000e-11
Integration weight cutoff        WCut        ... 1.0000e-14
Angular grids for H and He will be reduced by one unit
Partially contracted basis set               ... on
Rotationally invariant grid construction     ... off

Total number of grid points                  ...    39578
Total number of batches                      ...      625
Average number of points per batch           ...       63
Average number of grid points per atom       ...     2827
UseSFitting                                  ... on

Time for X-Grid setup             =    0.181 sec

--------------
SCF ITERATIONS
--------------
ITER       Energy         Delta-E        Max-DP      RMS-DP      [F,P]     Damp
               ***  Starting incremental Fock matrix formation  ***
  0   -344.1740309953   0.000000000000 0.04312293  0.00131905  0.1226970 0.7000
  1   -344.2451636837  -0.071132688376 0.02634329  0.00090623  0.0458963 0.7000
                               ***Turning on DIIS***
  2   -344.2731643115  -0.028000627788 0.03858271  0.00155818  0.0170484 0.0000
  3   -344.3190701594  -0.045905847902 0.02035458  0.00075378  0.0299953 0.0000
  4   -344.3299767501  -0.010906590678 0.00830289  0.00027820  0.0081569 0.0000
  5   -344.3312646539  -0.001287903878 0.00542873  0.00016496  0.0059314 0.0000
  6   -344.3320408590  -0.000776205076 0.00601101  0.00016560  0.0030514 0.0000
  7   -344.3325983938  -0.000557534754 0.00455097  0.00011320  0.0025607 0.0000
  8   -344.3329512957  -0.000352901969 0.00450865  0.00012935  0.0016617 0.0000
  9   -344.3332516483  -0.000300352570 0.00289731  0.00008809  0.0014185 0.0000
 10   -344.3334132274  -0.000161579091 0.00255296  0.00007081  0.0011487 0.0000
 11   -344.3335183055  -0.000105078068 0.00537371  0.00013758  0.0009571 0.0000
               *** Restarting incremental Fock matrix formation ***
                                   *** Resetting DIIS ***
 12   -344.3336843646  -0.000166059142 0.00181578  0.00003155  0.0010920 0.0000
 13   -344.3336974875  -0.000013122890 0.00085334  0.00001555  0.0013815 0.0000
 14   -344.3337103702  -0.000012882681 0.00131731  0.00002876  0.0007076 0.0000
 15   -344.3337281505  -0.000017780301 0.00294711  0.00005073  0.0007005 0.0000
 16   -344.3337533014  -0.000025150917 0.00304370  0.00005527  0.0006199 0.0000
 17   -344.3337704518  -0.000017150408 0.00233510  0.00003973  0.0003819 0.0000
 18   -344.3337751753  -0.000004723463 0.00036203  0.00000638  0.0001090 0.0000
 19   -344.3337754132  -0.000000237938 0.00021046  0.00000342  0.0000826 0.0000
 20   -344.3337755437  -0.000000130529 0.00011494  0.00000206  0.0000426 0.0000
 21   -344.3337756021  -0.000000058409 0.00015641  0.00000255  0.0000297 0.0000
 22   -344.3337756373  -0.000000035182 0.00012687  0.00000229  0.0000235 0.0000
 23   -344.3337756728  -0.000000035462 0.00007672  0.00000145  0.0000157 0.0000
 24   -344.3337756911  -0.000000018287 0.00007466  0.00000156  0.0000118 0.0000
 25   -344.3337757013  -0.000000010280 0.00004710  0.00000088  0.0000083 0.0000
 26   -344.3337757073  -0.000000005914 0.00002229  0.00000055  0.0000078 0.0000
 27   -344.3337757113  -0.000000004014 0.00002525  0.00000045  0.0000081 0.0000
 28   -344.3337757117  -0.000000000452 0.00000969  0.00000022  0.0000049 0.0000
 29   -344.3337757128  -0.000000001087 0.00000880  0.00000020  0.0000042 0.0000
 30   -344.3337757185  -0.000000005640 0.00001000  0.00000018  0.0000032 0.0000
                 **** Energy Check signals convergence ****

               *****************************************************
               *                     SUCCESS                       *
               *           SCF CONVERGED AFTER  31 CYCLES          *
               *****************************************************

Old exchange energy                            =    -11.167691361 Eh
New exchange energy                            =    -11.167706873 Eh
Exchange energy change after final integration =     -0.000015512 Eh
Total energy after final integration           =   -344.333791230 Eh
Final COS-X integration done in                =     0.680 sec

----------------
TOTAL SCF ENERGY
----------------

Total Energy       :         -344.33379123 Eh           -9369.79881 eV

Components:
Nuclear Repulsion  :          304.11042132 Eh            8275.26527 eV
Electronic Energy  :         -648.44421255 Eh          -17645.06408 eV
One Electron Energy:        -1071.58378263 Eh          -29159.27715 eV
Two Electron Energy:          423.13957008 Eh           11514.21307 eV
Max COSX asymmetry :            0.00000138 Eh               0.00004 eV

Virial components:
Potential Energy   :         -685.92734117 Eh          -18665.03187 eV
Kinetic Energy     :          341.59354994 Eh            9295.23305 eV
Virial Ratio       :            2.00802194


DFT components:
N(Alpha)           :       27.000040720473 electrons
N(Beta)            :       26.000036410933 electrons
N(Total)           :       53.000077131406 electrons
E(X)               :      -33.462415681522 Eh       
E(C)               :       -1.768970902674 Eh       
E(XC)              :      -35.231386584196 Eh       
DFET-embed. en.    :        0.000000000000 Eh       

---------------
SCF CONVERGENCE
---------------

  Last Energy change         ...    6.8997e-10  Tolerance :   1.0000e-08
  Last MAX-Density change    ...    0.0000e+00  Tolerance :   1.0000e-07
  Last RMS-Density change    ...    0.0000e+00  Tolerance :   5.0000e-09
  Last DIIS Error            ...    2.8648e-06  Tolerance :   5.0000e-07

             **** THE GBW FILE WAS UPDATED (path_opt3_orca.gbw) ****
             **** DENSITY path_opt3_orca.scfp WAS UPDATED ****
             **** ENERGY FILE WAS UPDATED (path_opt3_orca.en.tmp) ****
----------------------
UHF SPIN CONTAMINATION
----------------------

Warning: in a DFT calculation there is little theoretical justification to 
         calculate <S**2> as in Hartree-Fock theory. We will do it anyways
         but you should keep in mind that the values have only limited relevance

Expectation value of <S**2>     :     0.865473
Ideal value S*(S+1) for S=0.5   :     0.750000
Deviation                       :     0.115473

             **** THE GBW FILE WAS UPDATED (path_opt3_orca.gbw) ****
             **** DENSITY path_opt3_orca.scfp WAS UPDATED ****
----------------
ORBITAL ENERGIES
----------------
                 SPIN UP ORBITALS
  NO   OCC          E(Eh)            E(eV) 
   0   1.0000     -19.248862      -523.7882 
   1   1.0000     -19.227134      -523.1969 
   2   1.0000     -10.284274      -279.8493 
   3   1.0000     -10.264121      -279.3009 
   4   1.0000     -10.255663      -279.0708 
   5   1.0000     -10.246102      -278.8106 
   6   1.0000     -10.229147      -278.3492 
   7   1.0000      -1.060484       -28.8572 
   8   1.0000      -0.959473       -26.1086 
   9   1.0000      -0.864918       -23.5356 
  10   1.0000      -0.748506       -20.3679 
  11   1.0000      -0.705952       -19.2099 
  12   1.0000      -0.581295       -15.8178 
  13   1.0000      -0.562840       -15.3156 
  14   1.0000      -0.553013       -15.0483 
  15   1.0000      -0.489320       -13.3151 
  16   1.0000      -0.467897       -12.7321 
  17   1.0000      -0.439102       -11.9486 
  18   1.0000      -0.414009       -11.2658 
  19   1.0000      -0.409879       -11.1534 
  20   1.0000      -0.396755       -10.7962 
  21   1.0000      -0.381253       -10.3744 
  22   1.0000      -0.355191        -9.6652 
  23   1.0000      -0.325893        -8.8680 
  24   1.0000      -0.312828        -8.5125 
  25   1.0000      -0.266680        -7.2567 
  26   1.0000      -0.209697        -5.7062 
  27   0.0000      -0.075108        -2.0438 
  28   0.0000       0.032464         0.8834 
  29   0.0000       0.078838         2.1453 
  30   0.0000       0.100945         2.7468 
  31   0.0000       0.117519         3.1979 
  32   0.0000       0.122609         3.3364 
  33   0.0000       0.135838         3.6963 
  34   0.0000       0.144158         3.9227 
  35   0.0000       0.160333         4.3629 
  36   0.0000       0.203809         5.5459 
  37   0.0000       0.219635         5.9766 
  38   0.0000       0.239687         6.5222 
  39   0.0000       0.270718         7.3666 
  40   0.0000       0.337211         9.1760 
  41   0.0000       0.376025        10.2322 
  42   0.0000       0.395880        10.7725 
  43   0.0000       0.437594        11.9075 
  44   0.0000       0.463094        12.6014 
  45   0.0000       0.484600        13.1866 
  46   0.0000       0.500437        13.6176 
  47   0.0000       0.531037        14.4502 
  48   0.0000       0.553883        15.0719 
  49   0.0000       0.578440        15.7401 
  50   0.0000       0.586114        15.9490 
  51   0.0000       0.609493        16.5852 
  52   0.0000       0.620249        16.8778 
  53   0.0000       0.634309        17.2604 
  54   0.0000       0.645914        17.5762 
  55   0.0000       0.654171        17.8009 
  56   0.0000       0.676480        18.4079 
  57   0.0000       0.695488        18.9252 
  58   0.0000       0.697615        18.9831 
  59   0.0000       0.713500        19.4153 
  60   0.0000       0.729703        19.8562 
  61   0.0000       0.744196        20.2506 
  62   0.0000       0.795003        21.6331 
  63   0.0000       0.797736        21.7075 
  64   0.0000       0.842542        22.9267 
  65   0.0000       0.877173        23.8691 
  66   0.0000       0.940137        25.5824 
  67   0.0000       0.987260        26.8647 
  68   0.0000       1.022703        27.8292 
  69   0.0000       1.043765        28.4023 
  70   0.0000       1.070803        29.1380 
  71   0.0000       1.109577        30.1931 
  72   0.0000       1.146065        31.1860 
  73   0.0000       1.185138        32.2492 
  74   0.0000       1.195536        32.5322 
  75   0.0000       1.264195        34.4005 
  76   0.0000       1.278823        34.7985 
  77   0.0000       1.332731        36.2655 
  78   0.0000       1.395022        37.9605 
  79   0.0000       1.450994        39.4835 
  80   0.0000       1.492519        40.6135 
  81   0.0000       1.553044        42.2605 
  82   0.0000       1.589969        43.2652 
  83   0.0000       1.605881        43.6982 
  84   0.0000       1.640837        44.6494 
  85   0.0000       1.653212        44.9862 
  86   0.0000       1.676308        45.6147 
  87   0.0000       1.687358        45.9153 
  88   0.0000       1.712483        46.5990 
  89   0.0000       1.744852        47.4798 
  90   0.0000       1.787349        48.6363 
  91   0.0000       1.813706        49.3535 
  92   0.0000       1.837047        49.9886 
  93   0.0000       1.852393        50.4062 
  94   0.0000       1.875105        51.0242 
  95   0.0000       1.907960        51.9182 
  96   0.0000       1.910325        51.9826 
  97   0.0000       1.941853        52.8405 
  98   0.0000       1.967539        53.5395 
  99   0.0000       2.040689        55.5300 
 100   0.0000       2.041536        55.5530 
 101   0.0000       2.084629        56.7256 
 102   0.0000       2.091083        56.9012 
 103   0.0000       2.110071        57.4179 
 104   0.0000       2.229430        60.6659 
 105   0.0000       2.251598        61.2691 
 106   0.0000       2.292979        62.3951 
 107   0.0000       2.304520        62.7092 
 108   0.0000       2.379937        64.7614 
 109   0.0000       2.426250        66.0216 
 110   0.0000       2.459876        66.9366 
 111   0.0000       2.488308        67.7103 
 112   0.0000       2.513628        68.3993 
 113   0.0000       2.600904        70.7742 
 114   0.0000       2.626899        71.4816 
 115   0.0000       2.668606        72.6165 
 116   0.0000       2.705592        73.6229 
 117   0.0000       2.722139        74.0732 
 118   0.0000       2.748070        74.7788 
 119   0.0000       2.774554        75.4994 
 120   0.0000       2.825912        76.8970 
 121   0.0000       2.865738        77.9807 
 122   0.0000       2.939639        79.9916 
 123   0.0000       2.964450        80.6668 
 124   0.0000       3.004819        81.7653 
 125   0.0000       3.045080        82.8608 
 126   0.0000       3.088745        84.0490 
 127   0.0000       3.095102        84.2220 
 128   0.0000       3.174547        86.3838 
 129   0.0000       3.217946        87.5648 
 130   0.0000       3.445442        93.7553 
 131   0.0000       3.474775        94.5534 
 132   0.0000       3.744742       101.8996 

                 SPIN DOWN ORBITALS
  NO   OCC          E(Eh)            E(eV) 
   0   1.0000     -19.252375      -523.8838 
   1   1.0000     -19.216691      -522.9127 
   2   1.0000     -10.284604      -279.8583 
   3   1.0000     -10.256951      -279.1058 
   4   1.0000     -10.249732      -278.9094 
   5   1.0000     -10.245967      -278.8069 
   6   1.0000     -10.229745      -278.3655 
   7   1.0000      -1.062502       -28.9121 
   8   1.0000      -0.936844       -25.4928 
   9   1.0000      -0.857713       -23.3396 
  10   1.0000      -0.743287       -20.2259 
  11   1.0000      -0.695201       -18.9174 
  12   1.0000      -0.576460       -15.6863 
  13   1.0000      -0.560511       -15.2523 
  14   1.0000      -0.546071       -14.8594 
  15   1.0000      -0.482724       -13.1356 
  16   1.0000      -0.465082       -12.6555 
  17   1.0000      -0.433373       -11.7927 
  18   1.0000      -0.409544       -11.1443 
  19   1.0000      -0.404603       -11.0098 
  20   1.0000      -0.392687       -10.6856 
  21   1.0000      -0.377734       -10.2787 
  22   1.0000      -0.340985        -9.2787 
  23   1.0000      -0.310919        -8.4605 
  24   1.0000      -0.294305        -8.0084 
  25   1.0000      -0.261761        -7.1229 
  26   0.0000      -0.089090        -2.4243 
  27   0.0000      -0.044572        -1.2129 
  28   0.0000       0.055352         1.5062 
  29   0.0000       0.080854         2.2001 
  30   0.0000       0.104531         2.8444 
  31   0.0000       0.119883         3.2622 
  32   0.0000       0.125628         3.4185 
  33   0.0000       0.139103         3.7852 
  34   0.0000       0.146843         3.9958 
  35   0.0000       0.163243         4.4421 
  36   0.0000       0.207778         5.6539 
  37   0.0000       0.222370         6.0510 
  38   0.0000       0.242417         6.5965 
  39   0.0000       0.278103         7.5676 
  40   0.0000       0.340919         9.2769 
  41   0.0000       0.381946        10.3933 
  42   0.0000       0.396854        10.7989 
  43   0.0000       0.447935        12.1889 
  44   0.0000       0.469302        12.7704 
  45   0.0000       0.494799        13.4642 
  46   0.0000       0.511486        13.9182 
  47   0.0000       0.547058        14.8862 
  48   0.0000       0.556284        15.1373 
  49   0.0000       0.589005        16.0276 
  50   0.0000       0.599336        16.3088 
  51   0.0000       0.615357        16.7447 
  52   0.0000       0.628785        17.1101 
  53   0.0000       0.640052        17.4167 
  54   0.0000       0.652487        17.7551 
  55   0.0000       0.661086        17.9891 
  56   0.0000       0.680824        18.5262 
  57   0.0000       0.698885        19.0176 
  58   0.0000       0.699745        19.0410 
  59   0.0000       0.715319        19.4648 
  60   0.0000       0.733894        19.9703 
  61   0.0000       0.747434        20.3387 
  62   0.0000       0.798200        21.7201 
  63   0.0000       0.803693        21.8696 
  64   0.0000       0.846892        23.0451 
  65   0.0000       0.878756        23.9122 
  66   0.0000       0.948803        25.8182 
  67   0.0000       0.995948        27.1011 
  68   0.0000       1.038677        28.2638 
  69   0.0000       1.049898        28.5692 
  70   0.0000       1.073840        29.2207 
  71   0.0000       1.112113        30.2621 
  72   0.0000       1.150928        31.3184 
  73   0.0000       1.189414        32.3656 
  74   0.0000       1.204352        32.7721 
  75   0.0000       1.269075        34.5333 
  76   0.0000       1.289384        35.0859 
  77   0.0000       1.338654        36.4266 
  78   0.0000       1.399980        38.0954 
  79   0.0000       1.451700        39.5028 
  80   0.0000       1.492895        40.6237 
  81   0.0000       1.561327        42.4859 
  82   0.0000       1.596581        43.4452 
  83   0.0000       1.608534        43.7704 
  84   0.0000       1.643331        44.7173 
  85   0.0000       1.655273        45.0423 
  86   0.0000       1.681874        45.7661 
  87   0.0000       1.692103        46.0445 
  88   0.0000       1.713301        46.6213 
  89   0.0000       1.748770        47.5864 
  90   0.0000       1.791022        48.7362 
  91   0.0000       1.815252        49.3955 
  92   0.0000       1.846591        50.2483 
  93   0.0000       1.855447        50.4893 
  94   0.0000       1.883676        51.2574 
  95   0.0000       1.912496        52.0417 
  96   0.0000       1.923460        52.3400 
  97   0.0000       1.954438        53.1830 
  98   0.0000       1.973833        53.7107 
  99   0.0000       2.046051        55.6759 
 100   0.0000       2.049300        55.7643 
 101   0.0000       2.089864        56.8681 
 102   0.0000       2.090708        56.8911 
 103   0.0000       2.114094        57.5274 
 104   0.0000       2.236282        60.8523 
 105   0.0000       2.256765        61.4097 
 106   0.0000       2.297487        62.5178 
 107   0.0000       2.319523        63.1174 
 108   0.0000       2.394529        65.1584 
 109   0.0000       2.434856        66.2558 
 110   0.0000       2.465396        67.0868 
 111   0.0000       2.494616        67.8820 
 112   0.0000       2.522562        68.6424 
 113   0.0000       2.604535        70.8730 
 114   0.0000       2.634020        71.6753 
 115   0.0000       2.676991        72.8446 
 116   0.0000       2.710852        73.7660 
 117   0.0000       2.732180        74.3464 
 118   0.0000       2.750588        74.8473 
 119   0.0000       2.774306        75.4927 
 120   0.0000       2.828586        76.9697 
 121   0.0000       2.868364        78.0522 
 122   0.0000       2.946308        80.1731 
 123   0.0000       2.977502        81.0220 
 124   0.0000       3.008251        81.8587 
 125   0.0000       3.051779        83.0431 
 126   0.0000       3.091272        84.1178 
 127   0.0000       3.097700        84.2927 
 128   0.0000       3.179452        86.5173 
 129   0.0000       3.222709        87.6944 
 130   0.0000       3.447891        93.8219 
 131   0.0000       3.470428        94.4352 
 132   0.0000       3.753398       102.1351 

                    ********************************
                    * MULLIKEN POPULATION ANALYSIS *
                    ********************************

--------------------------------------------
MULLIKEN ATOMIC CHARGES AND SPIN POPULATIONS
--------------------------------------------
   0 O :   -0.252805    0.370741
   1 O :   -0.260307   -0.161592
   2 C :    0.032492   -0.032154
   3 C :   -0.008209    0.527345
   4 C :    0.002794   -0.281652
   5 C :   -0.068884    0.649095
   6 C :    0.093598   -0.055534
   7 H :    0.181532   -0.008348
   8 H :    0.037672    0.003094
   9 H :    0.052855   -0.025329
  10 H :    0.034010    0.010145
  11 H :    0.031840   -0.031633
  12 H :    0.051727    0.030270
  13 H :    0.071686    0.005552
Sum of atomic charges         :   -0.0000000
Sum of atomic spin populations:    1.0000000

-----------------------------------------------------
MULLIKEN REDUCED ORBITAL CHARGES AND SPIN POPULATIONS
-----------------------------------------------------
CHARGE
  0 O s       :     3.841949  s :     3.841949
      pz      :     1.383538  p :     4.402700
      px      :     1.432948
      py      :     1.586214
      dz2     :     0.004074  d :     0.008156
      dxz     :     0.000902
      dyz     :     0.001419
      dx2y2   :     0.000566
      dxy     :     0.001195
  1 O s       :     3.890283  s :     3.890283
      pz      :     1.433988  p :     4.355192
      px      :     1.409751
      py      :     1.511453
      dz2     :     0.005627  d :     0.014832
      dxz     :     0.002483
      dyz     :     0.003354
      dx2y2   :     0.000930
      dxy     :     0.002437
  2 C s       :     3.152169  s :     3.152169
      pz      :     0.775908  p :     2.732857
      px      :     0.992312
      py      :     0.964637
      dz2     :     0.021336  d :     0.082482
      dxz     :     0.016936
      dyz     :     0.022299
      dx2y2   :     0.008077
      dxy     :     0.013833
  3 C s       :     3.226471  s :     3.226471
      pz      :     0.982965  p :     2.747477
      px      :     0.915981
      py      :     0.848532
      dz2     :     0.002661  d :     0.034261
      dxz     :     0.004892
      dyz     :     0.005783
      dx2y2   :     0.010067
      dxy     :     0.010858
  4 C s       :     3.171074  s :     3.171074
      pz      :     0.958932  p :     2.787957
      px      :     0.872809
      py      :     0.956216
      dz2     :     0.003650  d :     0.038175
      dxz     :     0.005717
      dyz     :     0.006915
      dx2y2   :     0.010830
      dxy     :     0.011063
  5 C s       :     3.236491  s :     3.236491
      pz      :     0.909293  p :     2.795057
      px      :     0.968637
      py      :     0.917128
      dz2     :     0.005807  d :     0.037335
      dxz     :     0.005138
      dyz     :     0.005413
      dx2y2   :     0.008790
      dxy     :     0.012188
  6 C s       :     2.968594  s :     2.968594
      pz      :     0.947892  p :     2.902232
      px      :     0.945731
      py      :     1.008609
      dz2     :     0.009375  d :     0.035577
      dxz     :     0.006594
      dyz     :     0.004625
      dx2y2   :     0.007031
      dxy     :     0.007952
  7 H s       :     0.751507  s :     0.751507
      pz      :     0.034186  p :     0.066961
      px      :     0.014597
      py      :     0.018177
  8 H s       :     0.941471  s :     0.941471
      pz      :     0.004195  p :     0.020857
      px      :     0.010805
      py      :     0.005857
  9 H s       :     0.923135  s :     0.923135
      pz      :     0.006374  p :     0.024010
      px      :     0.003131
      py      :     0.014504
 10 H s       :     0.942342  s :     0.942342
      pz      :     0.006436  p :     0.023648
      px      :     0.013493
      py      :     0.003719
 11 H s       :     0.944586  s :     0.944586
      pz      :     0.004450  p :     0.023574
      px      :     0.007395
      py      :     0.011729
 12 H s       :     0.925259  s :     0.925259
      pz      :     0.014184  p :     0.023015
      px      :     0.004484
      py      :     0.004346
 13 H s       :     0.904007  s :     0.904007
      pz      :     0.004875  p :     0.024307
      px      :     0.009120
      py      :     0.010312

SPIN
  0 O s       :     0.002292  s :     0.002292
      pz      :     0.010154  p :     0.368417
      px      :     0.176281
      py      :     0.181982
      dz2     :    -0.000002  d :     0.000031
      dxz     :     0.000082
      dyz     :     0.000011
      dx2y2   :     0.000011
      dxy     :    -0.000071
  1 O s       :     0.005956  s :     0.005956
      pz      :    -0.000276  p :    -0.168429
      px      :    -0.033634
      py      :    -0.134519
      dz2     :     0.000160  d :     0.000882
      dxz     :     0.000030
      dyz     :     0.000013
      dx2y2   :    -0.000009
      dxy     :     0.000688
  2 C s       :    -0.009410  s :    -0.009410
      pz      :    -0.003388  p :    -0.025289
      px      :    -0.015421
      py      :    -0.006480
      dz2     :    -0.000997  d :     0.002546
      dxz     :     0.002643
      dyz     :     0.001351
      dx2y2   :     0.000043
      dxy     :    -0.000495
  3 C s       :     0.074564  s :     0.074564
      pz      :     0.384748  p :     0.455498
      px      :     0.025912
      py      :     0.044838
      dz2     :    -0.000854  d :    -0.002718
      dxz     :    -0.000687
      dyz     :    -0.000852
      dx2y2   :    -0.000205
      dxy     :    -0.000119
  4 C s       :    -0.051352  s :    -0.051352
      pz      :    -0.154377  p :    -0.237537
      px      :    -0.036384
      py      :    -0.046776
      dz2     :     0.000860  d :     0.007237
      dxz     :     0.001040
      dyz     :     0.004217
      dx2y2   :     0.000338
      dxy     :     0.000782
  5 C s       :     0.085225  s :     0.085225
      pz      :     0.400791  p :     0.565970
      px      :     0.114003
      py      :     0.051176
      dz2     :    -0.000533  d :    -0.002100
      dxz     :    -0.000659
      dyz     :    -0.000667
      dx2y2   :    -0.000107
      dxy     :    -0.000134
  6 C s       :    -0.016404  s :    -0.016404
      pz      :    -0.013405  p :    -0.042691
      px      :    -0.022197
      py      :    -0.007090
      dz2     :     0.002342  d :     0.003562
      dxz     :     0.000592
      dyz     :     0.000244
      dx2y2   :     0.000290
      dxy     :     0.000095
  7 H s       :    -0.011069  s :    -0.011069
      pz      :     0.000048  p :     0.002721
      px      :     0.001253
      py      :     0.001421
  8 H s       :     0.003155  s :     0.003155
      pz      :    -0.000027  p :    -0.000060
      px      :    -0.000053
      py      :     0.000020
  9 H s       :    -0.027925  s :    -0.027925
      pz      :     0.002145  p :     0.002596
      px      :    -0.000045
      py      :     0.000496
 10 H s       :     0.011128  s :     0.011128
      pz      :    -0.000721  p :    -0.000983
      px      :    -0.000177
      py      :    -0.000085
 11 H s       :    -0.034999  s :    -0.034999
      pz      :     0.002396  p :     0.003365
      px      :     0.000584
      py      :     0.000385
 12 H s       :     0.030493  s :     0.030493
      pz      :    -0.000264  p :    -0.000223
      px      :     0.000024
      py      :     0.000017
 13 H s       :     0.005616  s :     0.005616
      pz      :    -0.000057  p :    -0.000065
      px      :    -0.000086
      py      :     0.000078


                     *******************************
                     * LOEWDIN POPULATION ANALYSIS *
                     *******************************

-------------------------------------------
LOEWDIN ATOMIC CHARGES AND SPIN POPULATIONS
-------------------------------------------
   0 O :   -0.146587    0.341243
   1 O :   -0.084899   -0.132902
   2 C :    0.026274    0.001029
   3 C :    0.008030    0.403809
   4 C :   -0.033822   -0.152889
   5 C :    0.031107    0.514748
   6 C :   -0.057268   -0.008290
   7 H :    0.062264    0.002822
   8 H :    0.017936    0.002321
   9 H :    0.035085   -0.000775
  10 H :    0.036444    0.000742
  11 H :    0.024721   -0.001095
  12 H :    0.037684    0.023914
  13 H :    0.043033    0.005323

----------------------------------------------------
LOEWDIN REDUCED ORBITAL CHARGES AND SPIN POPULATIONS
----------------------------------------------------
CHARGE
  0 O s       :     3.650624  s :     3.650624
      pz      :     1.476436  p :     4.481683
      px      :     1.428063
      py      :     1.577183
      dz2     :     0.008256  d :     0.014281
      dxz     :     0.000839
      dyz     :     0.002426
      dx2y2   :     0.000851
      dxy     :     0.001909
  1 O s       :     3.641925  s :     3.641925
      pz      :     1.507394  p :     4.417610
      px      :     1.396653
      py      :     1.513562
      dz2     :     0.009690  d :     0.025365
      dxz     :     0.003924
      dyz     :     0.005740
      dx2y2   :     0.001525
      dxy     :     0.004486
  2 C s       :     2.845995  s :     2.845995
      pz      :     0.898779  p :     2.940672
      px      :     1.029973
      py      :     1.011920
      dz2     :     0.046887  d :     0.187059
      dxz     :     0.036243
      dyz     :     0.053501
      dx2y2   :     0.016256
      dxy     :     0.034173
  3 C s       :     2.902758  s :     2.902758
      pz      :     0.967711  p :     3.004925
      px      :     1.010873
      py      :     1.026341
      dz2     :     0.006216  d :     0.084287
      dxz     :     0.010951
      dyz     :     0.010745
      dx2y2   :     0.025154
      dxy     :     0.031221
  4 C s       :     2.865286  s :     2.865286
      pz      :     0.970959  p :     3.068369
      px      :     1.038625
      py      :     1.058785
      dz2     :     0.008177  d :     0.100167
      dxz     :     0.012320
      dyz     :     0.017446
      dx2y2   :     0.029924
      dxy     :     0.032301
  5 C s       :     2.891026  s :     2.891026
      pz      :     0.930506  p :     2.987012
      px      :     1.006725
      py      :     1.049782
      dz2     :     0.012045  d :     0.090855
      dxz     :     0.012047
      dyz     :     0.012250
      dx2y2   :     0.024555
      dxy     :     0.029957
  6 C s       :     2.838913  s :     2.838913
      pz      :     1.037982  p :     3.124002
      px      :     1.034208
      py      :     1.051811
      dz2     :     0.025849  d :     0.094353
      dxz     :     0.016840
      dyz     :     0.011912
      dx2y2   :     0.019136
      dxy     :     0.020616
  7 H s       :     0.755697  s :     0.755697
      pz      :     0.094995  p :     0.182039
      px      :     0.039118
      py      :     0.047927
  8 H s       :     0.915467  s :     0.915467
      pz      :     0.014709  p :     0.066597
      px      :     0.032276
      py      :     0.019612
  9 H s       :     0.890959  s :     0.890959
      pz      :     0.020510  p :     0.073956
      px      :     0.011683
      py      :     0.041764
 10 H s       :     0.895114  s :     0.895114
      pz      :     0.018682  p :     0.068442
      px      :     0.037577
      py      :     0.012183
 11 H s       :     0.903705  s :     0.903705
      pz      :     0.014726  p :     0.071574
      px      :     0.023723
      py      :     0.033125
 12 H s       :     0.895067  s :     0.895067
      pz      :     0.040326  p :     0.067249
      px      :     0.013184
      py      :     0.013739
 13 H s       :     0.885555  s :     0.885555
      pz      :     0.013625  p :     0.071411
      px      :     0.026033
      py      :     0.031754

SPIN
  0 O s       :     0.001876  s :     0.001876
      pz      :     0.006210  p :     0.339630
      px      :     0.162534
      py      :     0.170886
      dz2     :    -0.000054  d :    -0.000263
      dxz     :     0.000022
      dyz     :    -0.000047
      dx2y2   :    -0.000047
      dxy     :    -0.000137
  1 O s       :     0.013433  s :     0.013433
      pz      :    -0.001148  p :    -0.148050
      px      :    -0.023253
      py      :    -0.123649
      dz2     :     0.000168  d :     0.001715
      dxz     :    -0.000013
      dyz     :    -0.000005
      dx2y2   :     0.000026
      dxy     :     0.001539
  2 C s       :     0.000004  s :     0.000004
      pz      :     0.002944  p :    -0.004796
      px      :    -0.005131
      py      :    -0.002608
      dz2     :    -0.002037  d :     0.005820
      dxz     :     0.005885
      dyz     :     0.002698
      dx2y2   :     0.000113
      dxy     :    -0.000840
  3 C s       :     0.013781  s :     0.013781
      pz      :     0.348208  p :     0.395117
      px      :     0.014808
      py      :     0.032101
      dz2     :    -0.000819  d :    -0.005089
      dxz     :    -0.001594
      dyz     :    -0.001192
      dx2y2   :    -0.000845
      dxy     :    -0.000638
  4 C s       :    -0.009027  s :    -0.009027
      pz      :    -0.118651  p :    -0.161976
      px      :    -0.021077
      py      :    -0.022248
      dz2     :     0.001830  d :     0.018114
      dxz     :     0.002597
      dyz     :     0.009910
      dx2y2   :     0.001287
      dxy     :     0.002491
  5 C s       :     0.019923  s :     0.019923
      pz      :     0.362584  p :     0.499304
      px      :     0.100823
      py      :     0.035897
      dz2     :    -0.000814  d :    -0.004479
      dxz     :    -0.000724
      dyz     :    -0.001557
      dx2y2   :    -0.000599
      dxy     :    -0.000785
  6 C s       :    -0.002413  s :    -0.002413
      pz      :    -0.004063  p :    -0.015167
      px      :    -0.008195
      py      :    -0.002909
      dz2     :     0.006011  d :     0.009290
      dxz     :     0.001499
      dyz     :     0.000583
      dx2y2   :     0.000919
      dxy     :     0.000279
  7 H s       :    -0.007316  s :    -0.007316
      pz      :     0.000933  p :     0.010138
      px      :     0.004243
      py      :     0.004962
  8 H s       :     0.002587  s :     0.002587
      pz      :    -0.000055  p :    -0.000266
      px      :    -0.000206
      py      :    -0.000005
  9 H s       :    -0.012494  s :    -0.012494
      pz      :     0.008844  p :     0.011719
      px      :     0.000343
      py      :     0.002532
 10 H s       :     0.005109  s :     0.005109
      pz      :    -0.002842  p :    -0.004367
      px      :    -0.001000
      py      :    -0.000525
 11 H s       :    -0.015394  s :    -0.015394
      pz      :     0.009141  p :     0.014300
      px      :     0.002945
      py      :     0.002213
 12 H s       :     0.024677  s :     0.024677
      pz      :    -0.000505  p :    -0.000764
      px      :    -0.000173
      py      :    -0.000086
 13 H s       :     0.005709  s :     0.005709
      pz      :    -0.000197  p :    -0.000386
      px      :    -0.000213
      py      :     0.000024


                      *****************************
                      * MAYER POPULATION ANALYSIS *
                      *****************************

  NA   - Mulliken gross atomic population
  ZA   - Total nuclear charge
  QA   - Mulliken gross atomic charge
  VA   - Mayer's total valence
  BVA  - Mayer's bonded valence
  FA   - Mayer's free valence

  ATOM       NA         ZA         QA         VA         BVA        FA
  0 O      8.2528     8.0000    -0.2528     2.0331     1.8933     0.1398
  1 O      8.2603     8.0000    -0.2603     1.9783     1.9232     0.0552
  2 C      5.9675     6.0000     0.0325     4.0019     4.0007     0.0011
  3 C      6.0082     6.0000    -0.0082     3.7951     3.6010     0.1941
  4 C      5.9972     6.0000     0.0028     3.8420     3.8059     0.0360
  5 C      6.0689     6.0000    -0.0689     3.9233     3.6435     0.2798
  6 C      5.9064     6.0000     0.0936     3.8020     3.8007     0.0014
  7 H      0.8185     1.0000     0.1815     1.0034     1.0032     0.0002
  8 H      0.9623     1.0000     0.0377     0.9886     0.9886     0.0000
  9 H      0.9471     1.0000     0.0529     0.9917     0.9909     0.0008
 10 H      0.9660     1.0000     0.0340     0.9864     0.9863     0.0001
 11 H      0.9682     1.0000     0.0318     0.9879     0.9866     0.0013
 12 H      0.9483     1.0000     0.0517     0.9789     0.9780     0.0009
 13 H      0.9283     1.0000     0.0717     1.0228     1.0228     0.0000

  Mayer bond orders larger than 0.100000
B(  0-O ,  1-O ) :   0.6971 B(  0-O ,  7-H ) :   0.9771 B(  1-O ,  2-C ) :   0.9620 
B(  1-O ,  3-C ) :   0.1619 B(  2-C ,  3-C ) :   0.9709 B(  2-C ,  6-C ) :   1.0214 
B(  2-C ,  8-H ) :   0.9475 B(  3-C ,  4-C ) :   1.3319 B(  3-C ,  9-H ) :   0.9957 
B(  4-C ,  5-C ) :   1.4358 B(  4-C , 10-H ) :   0.9931 B(  5-C ,  6-C ) :   1.0005 
B(  5-C , 11-H ) :   0.9785 B(  6-C , 12-H ) :   0.9201 B(  6-C , 13-H ) :   0.9224 



------------------
HIRSHFELD ANALYSIS
------------------

Total integrated alpha density =     27.000040720
Total integrated beta density  =     26.000036411

  ATOM     CHARGE      SPIN    
   0 O   -0.225119    0.327191
   1 O   -0.128171   -0.107828
   2 C    0.053057    0.017527
   3 C   -0.004624    0.310214
   4 C   -0.037410   -0.058685
   5 C    0.005739    0.402790
   6 C   -0.054351    0.024136
   7 H    0.151857    0.009159
   8 H    0.034886    0.003716
   9 H    0.050468    0.021203
  10 H    0.048376   -0.005046
  11 H    0.036813    0.025660
  12 H    0.032488    0.023570
  13 H    0.035915    0.006397

  TOTAL  -0.000077    1.000004

-------
TIMINGS
-------

Total SCF time: 0 days 0 hours 0 min 13 sec 

Total time                  ....      13.359 sec
Sum of individual times     ....      13.197 sec  ( 98.8%)

Fock matrix formation       ....      12.164 sec  ( 91.1%)
  Split-RI-J                ....       1.045 sec  (  8.6% of F)
  Chain of spheres X        ....       7.972 sec  ( 65.5% of F)
  XC integration            ....       3.016 sec  ( 24.8% of F)
    Basis function eval.    ....       0.852 sec  ( 28.2% of XC)
    Density eval.           ....       0.766 sec  ( 25.4% of XC)
    XC-Functional eval.     ....       0.284 sec  (  9.4% of XC)
    XC-Potential eval.      ....       0.830 sec  ( 27.5% of XC)
Diagonalization             ....       0.222 sec  (  1.7%)
Density matrix formation    ....       0.012 sec  (  0.1%)
Population analysis         ....       0.135 sec  (  1.0%)
Initial guess               ....       0.038 sec  (  0.3%)
Orbital Transformation      ....       0.000 sec  (  0.0%)
Orbital Orthonormalization  ....       0.000 sec  (  0.0%)
DIIS solution               ....       0.156 sec  (  1.2%)
Grid generation             ....       0.470 sec  (  3.5%)

Maximum memory used throughout the entire SCF-calculation: 50.8 MB


-------------------------------------------------------------------------------
                          DFT DISPERSION CORRECTION                            
                                                                               
                              DFTD3 V3.1  Rev 1                                
                          USING Becke-Johnson damping                          
-------------------------------------------------------------------------------
The PBE0 functional is recognized
Active option DFTDOPT                   ...         4   

molecular C6(AA) [au] = 1793.656656 


            DFT-D V3
 parameters
 s6 scaling factor         :     1.0000 
 a1 scaling factor         :     0.4145 
 s8 scaling factor         :     1.2177 
 a2 scaling factor         :     4.8593 
 ad hoc parameters k1-k3   :    16.0000     1.3333    -4.0000 

 Edisp/kcal,au: -6.477301561109  -0.010322235979 
 E6   /kcal   :  -4.115040875 
 E8   /kcal   :  -2.362260686 
 % E8         :  36.469827197 

-------------------------   ----------------
Dispersion correction           -0.010322236
-------------------------   ----------------


-------------------------   --------------------
FINAL SINGLE POINT ENERGY      -344.344113465746
-------------------------   --------------------



           ************************************************************
           *        Program running with 8 parallel MPI-processes     *
           *              working on a common directory               *
           ************************************************************
------------------------------------------------------------------------------
                         ORCA SCF GRADIENT CALCULATION
------------------------------------------------------------------------------

 ... reading COSX grid (gridx3)
Gradient of the Kohn-Sham DFT energy:
Kohn-Sham wavefunction type      ... UKS
Hartree-Fock exchange scaling    ...    0.250
Number of operators              ...    2
Number of atoms                  ...   14
Basis set dimensions             ...  133
Integral neglect threshold       ... 2.5e-11
Integral primitive cutoff        ... 2.5e-12
SHARK Integral package           ... ON

Nuc. rep. gradient       (SHARK) ... done (  0.0 sec)
HCore & Overlap gradient (SHARK) ... done (  0.0 sec)
RI-J gradient            (SHARK) ... done (  0.1 sec)
COSX-gradient                    ... done (  0.9 sec)
Exchange-correlation gradient    ... done
Dispersion correction            ... done

------------------
CARTESIAN GRADIENT
------------------

   1   O   :   -0.031129246   -0.022223234   -0.002075187
   2   O   :    0.060301466    0.008105102   -0.035596099
   3   C   :    0.015202238   -0.008331967    0.012282994
   4   C   :    0.008541971   -0.005503529   -0.001614141
   5   C   :   -0.013420751    0.003749635   -0.001797387
   6   C   :   -0.037315702    0.024125143    0.016015851
   7   C   :   -0.002537300    0.001089869    0.015430038
   8   H   :   -0.000751307   -0.001006543    0.000368318
   9   H   :    0.002321604   -0.000187228   -0.002488960
  10   H   :    0.001321938    0.000160841    0.000332878
  11   H   :    0.000154241    0.000755924    0.000258449
  12   H   :   -0.000653481    0.000149941   -0.000593094
  13   H   :   -0.002438976    0.000909289    0.000379959
  14   H   :    0.000341366   -0.001753938   -0.000844235

Difference to translation invariance:
           :   -0.0000619402    0.0000393061    0.0000593851

Difference to rotation invariance:
           :    0.0002344554    0.0002295212   -0.0001100021

Norm of the cartesian gradient     ...    0.0984638390
RMS gradient                       ...    0.0151933002
MAX gradient                       ...    0.0603014660

-------
TIMINGS
-------

Total SCF gradient time            ...        1.753 sec

One electron gradient       ....       0.017 sec  (  1.0%)
RI-J Coulomb gradient       ....       0.126 sec  (  7.2%)
COSX gradient               ....       0.904 sec  ( 51.6%)
XC gradient                 ....       0.494 sec  ( 28.2%)

Maximum memory used throughout the entire SCFGRAD-calculation: 38.8 MB
------------------------------------------------------------------------------
                         ORCA GEOMETRY RELAXATION STEP
------------------------------------------------------------------------------

Reading the OPT-File                    .... done
Getting information on internals        .... done
Copying old internal coords+grads       .... done
[...]
      px      :     0.965755
      py      :     0.918996
      dz2     :     0.005764  d :     0.036275
      dxz     :     0.005131
      dyz     :     0.005476
      dx2y2   :     0.008362
      dxy     :     0.011541
  6 C s       :     2.975286  s :     2.975286
      pz      :     0.941378  p :     2.894771
      px      :     0.942705
      py      :     1.010689
      dz2     :     0.008837  d :     0.034550
      dxz     :     0.006741
      dyz     :     0.004579
      dx2y2   :     0.006428
      dxy     :     0.007966
  7 H s       :     0.754382  s :     0.754382
      pz      :     0.035252  p :     0.067073
      px      :     0.014808
      py      :     0.017014
  8 H s       :     0.936940  s :     0.936940
      pz      :     0.003790  p :     0.020902
      px      :     0.011486
      py      :     0.005625
  9 H s       :     0.920609  s :     0.920609
      pz      :     0.006449  p :     0.023873
      px      :     0.003115
      py      :     0.014308
 10 H s       :     0.939844  s :     0.939844
      pz      :     0.006864  p :     0.023707
      px      :     0.013149
      py      :     0.003695
 11 H s       :     0.939499  s :     0.939499
      pz      :     0.004424  p :     0.023622
      px      :     0.007355
      py      :     0.011844
 12 H s       :     0.919190  s :     0.919190
      pz      :     0.013938  p :     0.022931
      px      :     0.004615
      py      :     0.004378
 13 H s       :     0.903384  s :     0.903384
      pz      :     0.004581  p :     0.023890
      px      :     0.008820
      py      :     0.010490

SPIN
  0 O s       :     0.002656  s :     0.002656
      pz      :     0.008738  p :     0.424969
      px      :     0.210072
      py      :     0.206158
      dz2     :    -0.000070  d :     0.000024
      dxz     :     0.000098
      dyz     :     0.000067
      dx2y2   :     0.000007
      dxy     :    -0.000077
  1 O s       :     0.007583  s :     0.007583
      pz      :     0.001577  p :    -0.185609
      px      :    -0.048659
      py      :    -0.138527
      dz2     :     0.000205  d :     0.001109
      dxz     :     0.000064
      dyz     :     0.000008
      dx2y2   :    -0.000023
      dxy     :     0.000854
  2 C s       :    -0.009668  s :    -0.009668
      pz      :    -0.004414  p :    -0.026549
      px      :    -0.016090
      py      :    -0.006045
      dz2     :    -0.000934  d :     0.002370
      dxz     :     0.002423
      dyz     :     0.001325
      dx2y2   :     0.000041
      dxy     :    -0.000485
  3 C s       :     0.071124  s :     0.071124
      pz      :     0.370320  p :     0.455015
      px      :     0.031694
      py      :     0.053001
      dz2     :    -0.000763  d :    -0.002753
      dxz     :    -0.000850
      dyz     :    -0.000834
      dx2y2   :    -0.000211
      dxy     :    -0.000094
  4 C s       :    -0.051783  s :    -0.051783
      pz      :    -0.158279  p :    -0.245268
      px      :    -0.038839
      py      :    -0.048151
      dz2     :     0.000842  d :     0.006866
      dxz     :     0.001090
      dyz     :     0.003712
      dx2y2   :     0.000411
      dxy     :     0.000810
  5 C s       :     0.081572  s :     0.081572
      pz      :     0.373410  p :     0.544751
      px      :     0.121425
      py      :     0.049916
      dz2     :    -0.000482  d :    -0.002129
      dxz     :    -0.000699
      dyz     :    -0.000648
      dx2y2   :    -0.000113
      dxy     :    -0.000188
  6 C s       :    -0.014913  s :    -0.014913
      pz      :    -0.012513  p :    -0.039862
      px      :    -0.021015
      py      :    -0.006334
      dz2     :     0.002108  d :     0.003171
      dxz     :     0.000396
      dyz     :     0.000284
      dx2y2   :     0.000312
      dxy     :     0.000070
  7 H s       :    -0.012536  s :    -0.012536
      pz      :     0.000104  p :     0.003018
      px      :     0.001450
      py      :     0.001464
  8 H s       :     0.002153  s :     0.002153
      pz      :    -0.000029  p :    -0.000062
      px      :    -0.000035
      py      :     0.000002
  9 H s       :    -0.027643  s :    -0.027643
      pz      :     0.002073  p :     0.002571
      px      :    -0.000024
      py      :     0.000522
 10 H s       :     0.011690  s :     0.011690
      pz      :    -0.000742  p :    -0.001052
      px      :    -0.000212
      py      :    -0.000098
 11 H s       :    -0.033577  s :    -0.033577
      pz      :     0.002235  p :     0.003236
      px      :     0.000633
      py      :     0.000368
 12 H s       :     0.025560  s :     0.025560
      pz      :    -0.000237  p :    -0.000173
      px      :     0.000052
      py      :     0.000011
 13 H s       :     0.004192  s :     0.004192
      pz      :    -0.000059  p :    -0.000050
      px      :    -0.000058
      py      :     0.000067


                     *******************************
                     * LOEWDIN POPULATION ANALYSIS *
                     *******************************

-------------------------------------------
LOEWDIN ATOMIC CHARGES AND SPIN POPULATIONS
-------------------------------------------
   0 O :   -0.158413    0.394429
   1 O :   -0.101731   -0.144696
   2 C :    0.038384   -0.001089
   3 C :    0.017417    0.400687
   4 C :   -0.036257   -0.163642
   5 C :    0.032724    0.495218
   6 C :   -0.053328   -0.008847
   7 H :    0.059313    0.003250
   8 H :    0.020685    0.001428
   9 H :    0.034628   -0.000700
  10 H :    0.036119    0.000733
  11 H :    0.026813   -0.001141
  12 H :    0.039254    0.020385
  13 H :    0.044392    0.003986

----------------------------------------------------
LOEWDIN REDUCED ORBITAL CHARGES AND SPIN POPULATIONS
----------------------------------------------------
CHARGE
  0 O s       :     3.651272  s :     3.651272
      pz      :     1.439486  p :     4.492806
      px      :     1.448221
      py      :     1.605098
      dz2     :     0.010399  d :     0.014336
      dxz     :     0.000514
      dyz     :     0.000691
      dx2y2   :     0.000744
      dxy     :     0.001987
  1 O s       :     3.652894  s :     3.652894
      pz      :     1.491971  p :     4.423980
      px      :     1.427310
      py      :     1.504700
      dz2     :     0.009603  d :     0.024857
      dxz     :     0.003609
      dyz     :     0.005500
      dx2y2   :     0.001473
      dxy     :     0.004672
  2 C s       :     2.854399  s :     2.854399
      pz      :     0.888553  p :     2.928459
      px      :     1.032714
      py      :     1.007192
      dz2     :     0.047123  d :     0.178758
      dxz     :     0.034440
      dyz     :     0.049416
      dx2y2   :     0.015276
      dxy     :     0.032502
  3 C s       :     2.909895  s :     2.909895
      pz      :     0.963881  p :     2.989437
      px      :     1.003800
      py      :     1.021757
      dz2     :     0.006308  d :     0.083250
      dxz     :     0.011715
      dyz     :     0.010924
      dx2y2   :     0.024121
      dxy     :     0.030181
  4 C s       :     2.869968  s :     2.869968
      pz      :     0.978267  p :     3.069544
      px      :     1.036525
      py      :     1.054752
      dz2     :     0.008172  d :     0.096745
      dxz     :     0.012542
      dyz     :     0.016636
      dx2y2   :     0.028003
      dxy     :     0.031392
  5 C s       :     2.895520  s :     2.895520
      pz      :     0.932510  p :     2.983853
      px      :     0.999592
      py      :     1.051751
      dz2     :     0.011870  d :     0.087903
      dxz     :     0.012042
      dyz     :     0.012557
      dx2y2   :     0.023393
      dxy     :     0.028041
  6 C s       :     2.844388  s :     2.844388
      pz      :     1.037199  p :     3.118157
      px      :     1.029038
      py      :     1.051920
      dz2     :     0.023904  d :     0.090784
      dxz     :     0.017498
      dyz     :     0.011753
      dx2y2   :     0.017092
      dxy     :     0.020537
  7 H s       :     0.757815  s :     0.757815
      pz      :     0.098259  p :     0.182873
      px      :     0.039633
      py      :     0.044981
  8 H s       :     0.912384  s :     0.912384
      pz      :     0.013708  p :     0.066930
      px      :     0.034100
      py      :     0.019123
  9 H s       :     0.891198  s :     0.891198
      pz      :     0.020790  p :     0.074174
      px      :     0.011709
      py      :     0.041675
 10 H s       :     0.894907  s :     0.894907
      pz      :     0.019939  p :     0.068974
      px      :     0.036910
      py      :     0.012124
 11 H s       :     0.901529  s :     0.901529
      pz      :     0.014548  p :     0.071658
      px      :     0.023638
      py      :     0.033472
 12 H s       :     0.893391  s :     0.893391
      pz      :     0.039997  p :     0.067354
      px      :     0.013504
      py      :     0.013853
 13 H s       :     0.885162  s :     0.885162
      pz      :     0.012883  p :     0.070446
      px      :     0.025389
      py      :     0.032174

SPIN
  0 O s       :     0.002403  s :     0.002403
      pz      :     0.004309  p :     0.392323
      px      :     0.194578
      py      :     0.193436
      dz2     :    -0.000129  d :    -0.000297
      dxz     :     0.000036
      dyz     :     0.000004
      dx2y2   :    -0.000034
      dxy     :    -0.000175
  1 O s       :     0.015839  s :     0.015839
      pz      :     0.000828  p :    -0.162683
      px      :    -0.037049
      py      :    -0.126462
      dz2     :     0.000233  d :     0.002148
      dxz     :     0.000017
      dyz     :     0.000001
      dx2y2   :     0.000007
      dxy     :     0.001890
  2 C s       :    -0.000031  s :    -0.000031
      pz      :     0.002405  p :    -0.006426
      px      :    -0.005837
      py      :    -0.002994
      dz2     :    -0.001875  d :     0.005367
      dxz     :     0.005320
      dyz     :     0.002645
      dx2y2   :     0.000122
      dxy     :    -0.000844
  3 C s       :     0.013359  s :     0.013359
      pz      :     0.335413  p :     0.392589
      px      :     0.019152
      py      :     0.038024
      dz2     :    -0.000719  d :    -0.005262
      dxz     :    -0.001915
      dyz     :    -0.001170
      dx2y2   :    -0.000835
      dxy     :    -0.000623
  4 C s       :    -0.009480  s :    -0.009480
      pz      :    -0.122666  p :    -0.171225
      px      :    -0.024279
      py      :    -0.024281
      dz2     :     0.001788  d :     0.017063
      dxz     :     0.002583
      dyz     :     0.008655
      dx2y2   :     0.001472
      dxy     :     0.002566
  5 C s       :     0.019614  s :     0.019614
      pz      :     0.337107  p :     0.480178
      px      :     0.108988
      py      :     0.034083
      dz2     :    -0.000829  d :    -0.004573
      dxz     :    -0.000777
      dyz     :    -0.001548
      dx2y2   :    -0.000588
      dxy     :    -0.000831
  6 C s       :    -0.002378  s :    -0.002378
      pz      :    -0.004014  p :    -0.014646
      px      :    -0.008045
      py      :    -0.002586
      dz2     :     0.005300  d :     0.008177
      dxz     :     0.001079
      dyz     :     0.000694
      dx2y2   :     0.000902
      dxy     :     0.000202
  7 H s       :    -0.008212  s :    -0.008212
      pz      :     0.001364  p :     0.011461
      px      :     0.004980
      py      :     0.005117
  8 H s       :     0.001679  s :     0.001679
      pz      :    -0.000015  p :    -0.000251
      px      :    -0.000184
      py      :    -0.000052
  9 H s       :    -0.012381  s :    -0.012381
      pz      :     0.008515  p :     0.011682
      px      :     0.000462
      py      :     0.002704
 10 H s       :     0.005361  s :     0.005361
      pz      :    -0.002949  p :    -0.004628
      px      :    -0.001105
      py      :    -0.000574
 11 H s       :    -0.014835  s :    -0.014835
      pz      :     0.008485  p :     0.013694
      px      :     0.003093
      py      :     0.002116
 12 H s       :     0.021056  s :     0.021056
      pz      :    -0.000461  p :    -0.000670
      px      :    -0.000125
      py      :    -0.000084
 13 H s       :     0.004323  s :     0.004323
      pz      :    -0.000190  p :    -0.000337
      px      :    -0.000159
      py      :     0.000012


                      *****************************
                      * MAYER POPULATION ANALYSIS *
                      *****************************

  NA   - Mulliken gross atomic population
  ZA   - Total nuclear charge
  QA   - Mulliken gross atomic charge
  VA   - Mayer's total valence
  BVA  - Mayer's bonded valence
  FA   - Mayer's free valence

  ATOM       NA         ZA         QA         VA         BVA        FA
  0 O      8.2614     8.0000    -0.2614     2.0207     1.8392     0.1815
  1 O      8.2768     8.0000    -0.2768     1.9728     1.9137     0.0591
  2 C      5.9615     6.0000     0.0385     3.9763     3.9750     0.0013
  3 C      6.0076     6.0000    -0.0076     3.8020     3.6119     0.1901
  4 C      5.9984     6.0000     0.0016     3.8423     3.8029     0.0393
  5 C      6.0699     6.0000    -0.0699     3.9263     3.6682     0.2581
  6 C      5.9046     6.0000     0.0954     3.7970     3.7958     0.0012
  7 H      0.8215     1.0000     0.1785     1.0055     1.0052     0.0002
  8 H      0.9578     1.0000     0.0422     0.9916     0.9916     0.0000
  9 H      0.9445     1.0000     0.0555     0.9917     0.9909     0.0008
 10 H      0.9636     1.0000     0.0364     0.9870     0.9868     0.0001
 11 H      0.9631     1.0000     0.0369     0.9886     0.9875     0.0012
 12 H      0.9421     1.0000     0.0579     0.9784     0.9777     0.0007
 13 H      0.9273     1.0000     0.0727     1.0142     1.0142     0.0000

  Mayer bond orders larger than 0.100000
B(  0-O ,  1-O ) :   0.6483 B(  0-O ,  7-H ) :   0.9790 B(  1-O ,  2-C ) :   0.9481 
B(  1-O ,  3-C ) :   0.2121 B(  2-C ,  3-C ) :   0.9683 B(  2-C ,  6-C ) :   1.0098 
B(  2-C ,  8-H ) :   0.9536 B(  3-C ,  4-C ) :   1.3020 B(  3-C ,  9-H ) :   0.9947 
B(  4-C ,  5-C ) :   1.4655 B(  4-C , 10-H ) :   0.9932 B(  5-C ,  6-C ) :   0.9955 
B(  5-C , 11-H ) :   0.9784 B(  6-C , 12-H ) :   0.9265 B(  6-C , 13-H ) :   0.9249 



------------------
HIRSHFELD ANALYSIS
------------------

Total integrated alpha density =     27.000008167
Total integrated beta density  =     26.000004894

  ATOM     CHARGE      SPIN    
   0 O   -0.238232    0.378326
   1 O   -0.133984   -0.117575
   2 C    0.055908    0.015244
   3 C    0.000949    0.307372
   4 C   -0.038952   -0.070312
   5 C    0.007179    0.386894
   6 C   -0.050109    0.021656
   7 H    0.148707    0.010367
   8 H    0.038875    0.002632
   9 H    0.050177    0.020817
  10 H    0.048172   -0.005707
  11 H    0.039823    0.024639
  12 H    0.033916    0.020481
  13 H    0.037557    0.005168

  TOTAL  -0.000013    1.000003

-------
TIMINGS
-------

Total SCF time: 0 days 0 hours 0 min 7 sec 

Total time                  ....       7.250 sec
Sum of individual times     ....       7.114 sec  ( 98.1%)

Fock matrix formation       ....       6.356 sec  ( 87.7%)
  Split-RI-J                ....       0.534 sec  (  8.4% of F)
  Chain of spheres X        ....       4.504 sec  ( 70.9% of F)
  XC integration            ....       1.263 sec  ( 19.9% of F)
    Basis function eval.    ....       0.381 sec  ( 30.1% of XC)
    Density eval.           ....       0.338 sec  ( 26.8% of XC)
    XC-Functional eval.     ....       0.132 sec  ( 10.4% of XC)
    XC-Potential eval.      ....       0.258 sec  ( 20.4% of XC)
Diagonalization             ....       0.107 sec  (  1.5%)
Density matrix formation    ....       0.006 sec  (  0.1%)
Population analysis         ....       0.138 sec  (  1.9%)
Initial guess               ....       0.008 sec  (  0.1%)
Orbital Transformation      ....       0.000 sec  (  0.0%)
Orbital Orthonormalization  ....       0.004 sec  (  0.1%)
DIIS solution               ....       0.072 sec  (  1.0%)
Grid generation             ....       0.427 sec  (  5.9%)

Maximum memory used throughout the entire SCF-calculation: 50.7 MB


-------------------------------------------------------------------------------
                          DFT DISPERSION CORRECTION                            
                                                                               
                              DFTD3 V3.1  Rev 1                                
                          USING Becke-Johnson damping                          
-------------------------------------------------------------------------------
The PBE0 functional is recognized
Active option DFTDOPT                   ...         4   

molecular C6(AA) [au] = 1791.193612 


            DFT-D V3
 parameters
 s6 scaling factor         :     1.0000 
 a1 scaling factor         :     0.4145 
 s8 scaling factor         :     1.2177 
 a2 scaling factor         :     4.8593 
 ad hoc parameters k1-k3   :    16.0000     1.3333    -4.0000 

 Edisp/kcal,au: -6.446784358652  -0.010273603726 
 E6   /kcal   :  -4.094830301 
 E8   /kcal   :  -2.351954058 
 % E8         :  36.482592358 

-------------------------   ----------------
Dispersion correction           -0.010273604
-------------------------   ----------------


-------------------------   --------------------
FINAL SINGLE POINT ENERGY      -344.346531262801
-------------------------   --------------------

                                *** OPTIMIZATION RUN DONE ***

                            ***************************************
                            *     ORCA property calculations      *
                            ***************************************

                                    ---------------------
                                    Active property flags
                                    ---------------------
   (+) Dipole Moment


------------------------------------------------------------------------------
                       ORCA ELECTRIC PROPERTIES CALCULATION
------------------------------------------------------------------------------

Dipole Moment Calculation                       ... on
Quadrupole Moment Calculation                   ... off
Polarizability Calculation                      ... off
GBWName                                         ... path_opt3_orca.gbw
Electron density                                ... path_opt3_orca.scfp
The origin for moment calculation is the CENTER OF MASS  = (-0.314745,  0.012220  0.314644)

-------------
DIPOLE MOMENT
-------------
                                X             Y             Z
Electronic contribution:     -0.78714       0.63168       1.65505
Nuclear contribution   :      1.45340      -0.39001      -1.79174
                        -----------------------------------------
Total Dipole Moment    :      0.66626       0.24167      -0.13669
                        -----------------------------------------
Magnitude (a.u.)       :      0.72180
Magnitude (Debye)      :      1.83466



--------------------
Rotational spectrum 
--------------------
 
Rotational constants in cm-1:     0.169415     0.077091     0.067866 
Rotational constants in MHz :  5078.943654  2311.129358  2034.559090 

 Dipole components along the rotational axes: 
x,y,z [a.u.] :    -0.717654    -0.055064    -0.054147 
x,y,z [Debye]:    -1.824132    -0.139961    -0.137630 

 

Timings for individual modules:

Sum of individual times         ...       67.413 sec (=   1.124 min)
GTO integral calculation        ...        2.435 sec (=   0.041 min)   3.6 %
SCF iterations                  ...       54.561 sec (=   0.909 min)  80.9 %
SCF Gradient evaluation         ...       10.262 sec (=   0.171 min)  15.2 %
Geometry relaxation             ...        0.155 sec (=   0.003 min)   0.2 %
                             ****ORCA TERMINATED NORMALLY****
TOTAL RUN TIME: 0 days 0 hours 1 minutes 9 seconds 255 msec
