
                                 *****************
                                 * O   R   C   A *
                                 *****************

                                            #,                                       
                                            ###                                      
                                            ####                                     
                                            #####                                    
                                            ######                                   
                                           ########,                                 
                                     ,,################,,,,,                         
                               ,,#################################,,                 
                          ,,##########################################,,             
                       ,#########################################, ''#####,          
                    ,#############################################,,   '####,        
                  ,##################################################,,,,####,       
                ,###########''''           ''''###############################       
              ,#####''   ,,,,##########,,,,          '''####'''          '####       
            ,##' ,,,,###########################,,,                        '##       
           ' ,,###''''                  '''############,,,                           
         ,,##''                                '''############,,,,        ,,,,,,###''
      ,#''                                            '''#######################'''  
     '                                                          ''''####''''         
             ,#######,   #######,   ,#######,      ##                                
            ,#'     '#,  ##    ##  ,#'     '#,    #''#        ######   ,####,        
            ##       ##  ##   ,#'  ##            #'  '#       #        #'  '#        
            ##       ##  #######   ##           ,######,      #####,   #    #        
            '#,     ,#'  ##    ##  '#,     ,#' ,#      #,         ##   #,  ,#        
             '#######'   ##     ##  '#######'  #'      '#     #####' # '####'        



                  #######################################################
                  #                        -***-                        #
                  #          Department of theory and spectroscopy      #
                  #    Directorship and core code : Frank Neese         #
                  #        Max Planck Institute fuer Kohlenforschung    #
                  #                Kaiser Wilhelm Platz 1               #
                  #                 D-45470 Muelheim/Ruhr               #
                  #                      Germany                        #
                  #                                                     #
                  #                  All rights reserved                #
                  #                        -***-                        #
                  #######################################################


                         Program Version 5.0.4 -  RELEASE  -


 With contributions from (in alphabetic order):
   Daniel Aravena         : Magnetic Suceptibility
   Michael Atanasov       : Ab Initio Ligand Field Theory (pilot matlab implementation)
   Alexander A. Auer      : GIAO ZORA, VPT2 properties, NMR spectrum
   Ute Becker             : Parallelization
   Giovanni Bistoni       : ED, misc. LED, open-shell LED, HFLD
   Martin Brehm           : Molecular dynamics
   Dmytro Bykov           : SCF Hessian
   Vijay G. Chilkuri      : MRCI spin determinant printing, contributions to CSF-ICE
   Dipayan Datta          : RHF DLPNO-CCSD density
   Achintya Kumar Dutta   : EOM-CC, STEOM-CC
   Dmitry Ganyushin       : Spin-Orbit,Spin-Spin,Magnetic field MRCI
   Miquel Garcia          : C-PCM and meta-GGA Hessian, CC/C-PCM, Gaussian charge scheme
   Yang Guo               : DLPNO-NEVPT2, F12-NEVPT2, CIM, IAO-localization
   Andreas Hansen         : Spin unrestricted coupled pair/coupled cluster methods
   Benjamin Helmich-Paris : MC-RPA, TRAH-SCF, COSX integrals
   Lee Huntington         : MR-EOM, pCC
   Robert Izsak           : Overlap fitted RIJCOSX, COSX-SCS-MP3, EOM
   Marcus Kettner         : VPT2
   Christian Kollmar      : KDIIS, OOCD, Brueckner-CCSD(T), CCSD density, CASPT2, CASPT2-K
   Simone Kossmann        : Meta GGA functionals, TD-DFT gradient, OOMP2, MP2 Hessian
   Martin Krupicka        : Initial AUTO-CI
   Lucas Lang             : DCDCAS
   Marvin Lechner         : AUTO-CI (C++ implementation), FIC-MRCC
   Dagmar Lenk            : GEPOL surface, SMD
   Dimitrios Liakos       : Extrapolation schemes; Compound Job, initial MDCI parallelization
   Dimitrios Manganas     : Further ROCIS development; embedding schemes
   Dimitrios Pantazis     : SARC Basis sets
   Anastasios Papadopoulos: AUTO-CI, single reference methods and gradients
   Taras Petrenko         : DFT Hessian,TD-DFT gradient, ASA, ECA, R-Raman, ABS, FL, XAS/XES, NRVS
   Peter Pinski           : DLPNO-MP2, DLPNO-MP2 Gradient
   Christoph Reimann      : Effective Core Potentials
   Marius Retegan         : Local ZFS, SOC
   Christoph Riplinger    : Optimizer, TS searches, QM/MM, DLPNO-CCSD(T), (RO)-DLPNO pert. Triples
   Tobias Risthaus        : Range-separated hybrids, TD-DFT gradient, RPA, STAB
   Michael Roemelt        : Original ROCIS implementation
   Masaaki Saitow         : Open-shell DLPNO-CCSD energy and density
   Barbara Sandhoefer     : DKH picture change effects
   Avijit Sen             : IP-ROCIS
   Kantharuban Sivalingam : CASSCF convergence, NEVPT2, FIC-MRCI
   Bernardo de Souza      : ESD, SOC TD-DFT
   Georgi Stoychev        : AutoAux, RI-MP2 NMR, DLPNO-MP2 response
   Willem Van den Heuvel  : Paramagnetic NMR
   Boris Wezisla          : Elementary symmetry handling
   Frank Wennmohs         : Technical directorship


 We gratefully acknowledge several colleagues who have allowed us to
 interface, adapt or use parts of their codes:
   Stefan Grimme, W. Hujo, H. Kruse, P. Pracht,  : VdW corrections, initial TS optimization,
                  C. Bannwarth, S. Ehlert          DFT functionals, gCP, sTDA/sTD-DF
   Ed Valeev, F. Pavosevic, A. Kumar             : LibInt (2-el integral package), F12 methods
   Garnet Chan, S. Sharma, J. Yang, R. Olivares  : DMRG
   Ulf Ekstrom                                   : XCFun DFT Library
   Mihaly Kallay                                 : mrcc  (arbitrary order and MRCC methods)
   Jiri Pittner, Ondrej Demel                    : Mk-CCSD
   Frank Weinhold                                : gennbo (NPA and NBO analysis)
   Christopher J. Cramer and Donald G. Truhlar   : smd solvation model
   Lars Goerigk                                  : TD-DFT with DH, B97 family of functionals
   V. Asgeirsson, H. Jonsson                     : NEB implementation
   FAccTs GmbH                                   : IRC, NEB, NEB-TS, DLPNO-Multilevel, CI-OPT
                                                   MM, QMMM, 2- and 3-layer-ONIOM, Crystal-QMMM,
                                                   LR-CPCM, SF, NACMEs, symmetry and pop. for TD-DFT,
                                                   nearIR, NL-DFT gradient (VV10), updates on ESD,
                                                   ML-optimized integration grids
   S Lehtola, MJT Oliveira, MAL Marques          : LibXC Library
   Liviu Ungur et al                             : ANISO software


 Your calculation uses the libint2 library for the computation of 2-el integrals
 For citations please refer to: http://libint.valeyev.net

 Your ORCA version has been built with support for libXC version: 5.1.0
 For citations please refer to: https://tddft.org/programs/libxc/

 This ORCA versions uses:
   CBLAS   interface :  Fast vector & matrix operations
   LAPACKE interface :  Fast linear algebra routines
   SCALAPACK package :  Parallel linear algebra routines
   Shared memory     :  Shared parallel matrices
   BLAS/LAPACK       :  OpenBLAS 0.3.15  USE64BITINT DYNAMIC_ARCH NO_AFFINITY SkylakeX SINGLE_THREADED
        Core in use  :  SkylakeX
   Copyright (c) 2011-2014, The OpenBLAS Project


Your calculation utilizes the atom-pairwise dispersion correction
with the Becke-Johnson damping scheme (D3BJ)
Cite in your paper:
S.Grimme, S.Ehrlich, L.Goerigk, J Comput Chem, (2011), 32, 1456–1465 
S.Grimme, J.Antony, S.Ehrlich and H.Krieg, J.Chem.Phys., 132, (2010), 154104 
   

================================================================================

----- Orbital basis set information -----
Your calculation utilizes the basis: def2-SVP
   F. Weigend and R. Ahlrichs, Phys. Chem. Chem. Phys. 7, 3297 (2005).

----- AuxJ basis set information -----
Your calculation utilizes the auxiliary basis: def2/J
   F. Weigend, Phys. Chem. Chem. Phys. 8, 1057 (2006).

================================================================================
                                        WARNINGS
                       Please study these warnings very carefully!
================================================================================


WARNING: your system is open-shell and RHF/RKS was chosen
  ===> : WILL SWITCH to UHF/UKS


WARNING: Geometry Optimization
  ===> : Switching off AutoStart
         For restart on a previous wavefunction, please use MOREAD

INFO   : the flag for use of the SHARK integral package has been found!

================================================================================
                                       INPUT FILE
================================================================================
NAME = path_opt0_orca.inp
|  1> ! LooseOpt PBE0 RIJCOSX D3BJ def2-SVP def2/J 
|  2> %geom Constraints
|  3> { B 1 5 3.1874443151760237 C }
|  4> { B 0 1 1.6266055560153312 C }
|  5>     end
|  6> end
|  7> %geom MaxIter 50 end
|  8> %output 
|  9> xyzfile=True 
| 10> end 
| 11> %scf 
| 12> maxiter 250 
| 13> end
| 14> %output
| 15> Print[P_Hirshfeld] = 1
| 16> end
| 17> % maxcore
| 18> 4000
| 19> %pal nprocs 8
| 20> end
| 21> *xyz 0 2
| 22> O   -2.58147633  -0.38913938   0.74681068 
| 23> O   -1.35598400   0.21684048   1.15443841 
| 24> C   -0.62172292   0.48691014  -0.02396715 
| 25> C    0.58045043   1.28603721   0.38299150 
| 26> C    1.74192643   0.59376667   0.06710155 
| 27> C    1.44892851  -0.61490690  -0.55302787 
| 28> C   -0.03335736  -0.77665679  -0.69184529 
| 29> H   -2.58639934  -1.16996235   1.31665098 
| 30> H   -1.28390909   1.04649351  -0.71183855 
| 31> H    0.51169767   2.25409764   0.87950655 
| 32> H    2.75181635   0.95520230   0.27316928 
| 33> H    2.18296084  -1.34205239  -0.90408629 
| 34> H   -0.33773590  -0.86732522  -1.74900863 
| 35> H   -0.41719526  -1.67920492  -0.18689520 
| 36> *
| 37> 
| 38>                          ****END OF INPUT****
================================================================================

                       *****************************
                       * Geometry Optimization Run *
                       *****************************

Geometry optimization settings:
Update method            Update   .... BFGS
Choice of coordinates    CoordSys .... Z-matrix Internals
Initial Hessian          InHess   .... Almoef's Model

Convergence Tolerances:
Energy Change            TolE     ....  3.0000e-05 Eh
Max. Gradient            TolMAXG  ....  2.0000e-03 Eh/bohr
RMS Gradient             TolRMSG  ....  5.0000e-04 Eh/bohr
Max. Displacement        TolMAXD  ....  1.0000e-02 bohr
RMS Displacement         TolRMSD  ....  7.0000e-03 bohr
Strict Convergence                ....  False
------------------------------------------------------------------------------
                        ORCA OPTIMIZATION COORDINATE SETUP
------------------------------------------------------------------------------

The optimization will be done in new redundant internal coordinates
Making redundant internal coordinates   ...  (new redundants) done
Evaluating the initial hessian          ...  (Almloef) done
Evaluating the coordinates              ...  done
Calculating the B-matrix                .... done
Calculating the G-matrix                .... done
Diagonalizing the G-matrix              .... done
Imposing constraints:
 Iter   0:  RMS(Cart)=    0.0564193993 RMS(Int)=    0.1452056343
 Iter   1:  RMS(Cart)=    0.0307048128 RMS(Int)=    0.0203217707
 Iter   2:  RMS(Cart)=    0.0045019560 RMS(Int)=    0.0055535844
 Iter   3:  RMS(Cart)=    0.0012241625 RMS(Int)=    0.0015182499
 Iter   4:  RMS(Cart)=    0.0003346947 RMS(Int)=    0.0004150686
 Iter   5:  RMS(Cart)=    0.0000915021 RMS(Int)=    0.0001134746
 Iter   6:  RMS(Cart)=    0.0000250156 RMS(Int)=    0.0000310226
 Iter   7:  RMS(Cart)=    0.0000068390 RMS(Int)=    0.0000084812
 Iter   8:  RMS(Cart)=    0.0000018697 RMS(Int)=    0.0000023187
 Iter   9:  RMS(Cart)=    0.0000005112 RMS(Int)=    0.0000006339
 Iter  10:  RMS(Cart)=    0.0000001397 RMS(Int)=    0.0000001733
 Iter  11:  RMS(Cart)=    0.0000000382 RMS(Int)=    0.0000000474
CONVERGED
The first mode is                       ....   35
The number of degrees of freedom        ....   36
Storing new coordinates                 .... done

    -----------------------------------------------------------------
                    Redundant Internal Coordinates


    -----------------------------------------------------------------
         Definition                    Initial Value    Approx d2E/dq
    -----------------------------------------------------------------
      1. B(O   1,O   0)                  1.6266         0.438138 C 
      2. B(C   2,O   1)                  1.3560         0.511493   
      3. B(C   3,C   2)                  1.4893         0.417386   
      4. B(C   4,C   3)                  1.3656         0.628150   
      5. B(C   5,O   1)                  3.1874         0.000364 C 
      6. B(C   5,C   4)                  1.3856         0.625457   
      7. B(C   6,C   2)                  1.5105         0.352786   
      8. B(C   6,C   5)                  1.4608         0.420898   
      9. B(H   7,O   0)                  0.9675         0.507394   
     10. B(H   8,C   2)                  1.1067         0.338669   
     11. B(H   9,C   3)                  1.0902         0.359921   
     12. B(H  10,C   4)                  1.0928         0.357155   
     13. B(H  11,C   5)                  1.0917         0.358475   
     14. B(H  12,C   6)                  1.1043         0.342250   
     15. B(H  13,C   6)                  1.1036         0.343141   
     16. A(O   1,O   0,H   7)          100.1190         0.345268   
     17. A(O   0,O   1,C   2)          106.5254         0.386870   
     18. A(O   1,C   2,C   3)          105.6921         0.388575   
     19. A(C   3,C   2,C   6)          107.5782         0.366702   
     20. A(O   1,C   2,C   6)          109.8305         0.377388   
     21. A(C   3,C   2,H   8)          111.4920         0.326972   
     22. A(C   6,C   2,H   8)          111.6819         0.318085   
     23. A(O   1,C   2,H   8)          110.3583         0.336129   
     24. A(C   2,C   3,C   4)          108.1409         0.405438   
     25. A(C   2,C   3,H   9)          124.0882         0.330273   
     26. A(C   4,C   3,H   9)          127.7278         0.353660   
     27. A(C   5,C   4,H  10)          125.2053         0.352942   
     28. A(C   3,C   4,C   5)          109.7182         0.435775   
     29. A(C   3,C   4,H  10)          125.0751         0.353199   
     30. A(C   4,C   5,C   6)          113.1010         0.405731   
     31. A(C   4,C   5,H  11)          124.0607         0.353162   
     32. A(C   6,C   5,H  11)          122.8300         0.330511   
     33. A(H  12,C   6,H  13)          105.5348         0.286363   
     34. A(C   2,C   6,H  12)          113.0439         0.318631   
     35. A(C   5,C   6,H  12)          113.1893         0.327992   
     36. A(C   2,C   6,H  13)          110.5936         0.318766   
     37. A(C   2,C   6,C   5)          101.3996         0.367229   
     38. A(C   5,C   6,H  13)          113.2818         0.328133   
     39. D(C   2,O   1,O   0,H   7)    129.4290         0.015954   
     40. D(C   3,C   2,O   1,O   0)    172.1094         0.022480   
     41. D(C   6,C   2,O   1,O   0)    -72.1189         0.022480   
     42. D(H   8,C   2,O   1,O   0)     51.4352         0.022480   
     43. D(C   4,C   3,C   2,O   1)    115.4000         0.012887   
     44. D(C   4,C   3,C   2,C   6)     -1.8989         0.012887   
     45. D(H   9,C   3,C   2,H   8)     57.5608         0.012887   
     46. D(H   9,C   3,C   2,O   1)    -62.3717         0.012887   
     47. D(C   4,C   3,C   2,H   8)   -124.6675         0.012887   
     48. D(H   9,C   3,C   2,C   6)   -179.6706         0.012887   
     49. D(C   5,C   4,C   3,C   2)      0.4758         0.027348   
     50. D(C   5,C   4,C   3,H   9)    178.1425         0.027348   
     51. D(H  10,C   4,C   3,C   2)   -179.1131         0.027348   
     52. D(H  10,C   4,C   3,H   9)     -1.4464         0.027348   
     53. D(C   6,C   5,C   4,C   3)      1.2212         0.029450   
     54. D(C   6,C   5,C   4,H  10)   -179.1905         0.029450   
     55. D(H  11,C   5,C   4,C   3)   -179.8001         0.029450   
     56. D(H  11,C   5,C   4,H  10)     -0.2118         0.029450   
     57. D(H  12,C   6,C   5,H  11)    -59.8776         0.014015   
     58. D(C   5,C   6,C   2,C   3)      2.4155         0.010015   
     59. D(C   5,C   6,C   2,H   8)    125.0672         0.010015   
     60. D(H  13,C   6,C   2,H   8)   -114.5022         0.010015   
     61. D(H  12,C   6,C   2,C   3)   -119.0708         0.010015   
     62. D(H  12,C   6,C   2,H   8)      3.5808         0.010015   
     63. D(H  13,C   6,C   2,O   1)      8.2736         0.010015   
     64. D(H  12,C   6,C   2,O   1)    126.3566         0.010015   
     65. D(H  13,C   6,C   2,C   3)    122.8461         0.010015   
     66. D(C   2,C   6,C   5,C   4)     -2.2693         0.014015   
     67. D(C   2,C   6,C   5,H  11)    178.7376         0.014015   
     68. D(C   5,C   6,C   2,O   1)   -112.1570         0.010015   
     69. D(H  12,C   6,C   5,C   4)    119.1155         0.014015   
     70. D(H  13,C   6,C   5,C   4)   -120.7838         0.014015   
     71. D(H  13,C   6,C   5,H  11)     60.2231         0.014015   
    -----------------------------------------------------------------

Number of atoms                         .... 14
Number of degrees of freedom            .... 71

         *************************************************************
         *                GEOMETRY OPTIMIZATION CYCLE   1            *
         *************************************************************
---------------------------------
CARTESIAN COORDINATES (ANGSTROEM)
---------------------------------
  O     -2.626171   -0.483441    0.701034
  O     -1.221198    0.216915    1.126943
  C     -0.571598    0.511028   -0.026473
  C      0.612192    1.321418    0.373318
  C      1.737333    0.613230    0.061164
  C      1.383769   -0.593096   -0.521641
  C     -0.060515   -0.758913   -0.664888
  H     -2.595622   -1.276257    1.254747
  H     -1.235973    1.073526   -0.709866
  H      0.550094    2.292182    0.865484
  H      2.761153    0.945712    0.249751
  H      2.101936   -1.342763   -0.859222
  H     -0.382879   -0.875036   -1.714689
  H     -0.452520   -1.644405   -0.135661

----------------------------
CARTESIAN COORDINATES (A.U.)
----------------------------
  NO LB      ZA    FRAG     MASS         X           Y           Z
   0 O     8.0000    0    15.999   -4.962744   -0.913572    1.324761
   1 O     8.0000    0    15.999   -2.307731    0.409909    2.129615
   2 C     6.0000    0    12.011   -1.080164    0.965703   -0.050027
   3 C     6.0000    0    12.011    1.156875    2.497118    0.705469
   4 C     6.0000    0    12.011    3.283085    1.158837    0.115584
   5 C     6.0000    0    12.011    2.614944   -1.120788   -0.985759
   6 C     6.0000    0    12.011   -0.114357   -1.434137   -1.256456
   7 H     1.0000    0     1.008   -4.905015   -2.411777    2.371128
   8 H     1.0000    0     1.008   -2.335651    2.028671   -1.341453
   9 H     1.0000    0     1.008    1.039528    4.331596    1.635528
  10 H     1.0000    0     1.008    5.217823    1.787137    0.471960
  11 H     1.0000    0     1.008    3.972083   -2.537455   -1.623695
  12 H     1.0000    0     1.008   -0.723537   -1.653579   -3.240293
  13 H     1.0000    0     1.008   -0.855140   -3.107475   -0.256362

--------------------------------
INTERNAL COORDINATES (ANGSTROEM)
--------------------------------
 O      0   0   0     0.000000000000     0.00000000     0.00000000
 O      1   0   0     1.426605554412     0.00000000     0.00000000
 C      2   1   0     1.414466902651   106.79715262     0.00000000
 C      3   2   1     1.499813381813   106.96381890   172.61859435
 C      4   3   2     1.388542926826   110.06598780   118.48244664
 C      5   4   3     1.389712228301   111.02474587     1.19196679
 C      6   5   4     1.497532872231   110.12024174     0.47887574
 H      1   2   3     0.966657495709   100.31428093   129.27528065
 H      3   2   1     1.106702821293   107.68343224    51.75660876
 H      4   3   2     1.090135373711   123.10565392   300.11453017
 H      5   4   3     1.092234990512   124.43752612   180.81565211
 H      6   5   4     1.091231432541   125.54078308   179.71848195
 H      7   6   5     1.103839384716   111.75185126   119.50043664
 H      7   6   5     1.103131566874   112.97627693   238.90945435

---------------------------
INTERNAL COORDINATES (A.U.)
---------------------------
 O      0   0   0     0.000000000000     0.00000000     0.00000000
 O      1   0   0     2.695893798970     0.00000000     0.00000000
 C      2   1   0     2.672955071506   106.79715262     0.00000000
 C      3   2   1     2.834236543618   106.96381890   172.61859435
 C      4   3   2     2.623965856895   110.06598780   118.48244664
 C      5   4   3     2.626175516451   111.02474587     1.19196679
 C      6   5   4     2.829927005061   110.12024174     0.47887574
 H      1   2   3     1.826717932193   100.31428093   129.27528065
 H      3   2   1     2.091365243882   107.68343224    51.75660876
 H      4   3   2     2.060057305214   123.10565392   300.11453017
 H      5   4   3     2.064025005954   124.43752612   180.81565211
 H      6   5   4     2.062128556229   125.54078308   179.71848195
 H      7   6   5     2.085954132950   111.75185126   119.50043664
 H      7   6   5     2.084616551075   112.97627693   238.90945435

---------------------
BASIS SET INFORMATION
---------------------
There are 3 groups of distinct atoms

 Group   1 Type O   : 7s4p1d contracted to 3s2p1d pattern {511/31/1}
 Group   2 Type C   : 7s4p1d contracted to 3s2p1d pattern {511/31/1}
 Group   3 Type H   : 4s1p contracted to 2s1p pattern {31/1}

Atom   0O    basis set group =>   1
Atom   1O    basis set group =>   1
Atom   2C    basis set group =>   2
Atom   3C    basis set group =>   2
Atom   4C    basis set group =>   2
Atom   5C    basis set group =>   2
Atom   6C    basis set group =>   2
Atom   7H    basis set group =>   3
Atom   8H    basis set group =>   3
Atom   9H    basis set group =>   3
Atom  10H    basis set group =>   3
Atom  11H    basis set group =>   3
Atom  12H    basis set group =>   3
Atom  13H    basis set group =>   3
---------------------------------
AUXILIARY/J BASIS SET INFORMATION
---------------------------------
There are 3 groups of distinct atoms

 Group   1 Type O   : 12s5p4d2f1g contracted to 6s4p3d1f1g pattern {711111/2111/211/2/1}
 Group   2 Type C   : 12s5p4d2f1g contracted to 6s4p3d1f1g pattern {711111/2111/211/2/1}
 Group   3 Type H   : 5s2p1d contracted to 3s1p1d pattern {311/2/1}

Atom   0O    basis set group =>   1
Atom   1O    basis set group =>   1
Atom   2C    basis set group =>   2
Atom   3C    basis set group =>   2
Atom   4C    basis set group =>   2
Atom   5C    basis set group =>   2
Atom   6C    basis set group =>   2
Atom   7H    basis set group =>   3
Atom   8H    basis set group =>   3
Atom   9H    basis set group =>   3
Atom  10H    basis set group =>   3
Atom  11H    basis set group =>   3
Atom  12H    basis set group =>   3
Atom  13H    basis set group =>   3


           ************************************************************
           *        Program running with 8 parallel MPI-processes     *
           *              working on a common directory               *
           ************************************************************
------------------------------------------------------------------------------
                           ORCA GTO INTEGRAL CALCULATION
                           -- RI-GTO INTEGRALS CHOSEN --
------------------------------------------------------------------------------
------------------------------------------------------------------------------
                   ___                                                        
                  /   \      - P O W E R E D   B Y -                         
                 /     \                                                     
                 |  |  |   _    _      __       _____    __    __             
                 |  |  |  | |  | |    /  \     |  _  \  |  |  /  |          
                  \  \/   | |  | |   /    \    | | | |  |  | /  /          
                 / \  \   | |__| |  /  /\  \   | |_| |  |  |/  /          
                |  |  |   |  __  | /  /__\  \  |    /   |      \           
                |  |  |   | |  | | |   __   |  |    \   |  |\   \          
                \     /   | |  | | |  |  |  |  | |\  \  |  | \   \       
                 \___/    |_|  |_| |__|  |__|  |_| \__\ |__|  \__/        
                                                                              
                      - O R C A' S   B I G   F R I E N D -                    
                                      &                                       
                       - I N T E G R A L  F E E D E R -                       
                                                                              
 v1 FN, 2020, v2 2021                                                         
------------------------------------------------------------------------------


Reading SHARK input file path_opt0_orca.SHARKINP.tmp ... ok
----------------------
SHARK INTEGRAL PACKAGE
----------------------

Number of atoms                             ...     14
Number of basis functions                   ...    133
Number of shells                            ...     63
Maximum angular momentum                    ...      2
Integral batch strategy                     ... SHARK/LIBINT Hybrid
RI-J (if used) integral strategy            ... SPLIT-RIJ (Revised 2003 algorithm where possible)
Printlevel                                  ...      1
Contraction scheme used                     ... SEGMENTED contraction
Coulomb Range Separation                    ... NOT USED
Exchange Range Separation                   ... NOT USED
Finite Nucleus Model                        ... NOT USED
Auxiliary Coulomb fitting basis             ... AVAILABLE
   # of basis functions in Aux-J            ...    420
   # of shells in Aux-J                     ...    140
   Maximum angular momentum in Aux-J        ...      4
Auxiliary J/K fitting basis                 ... NOT available
Auxiliary Correlation fitting basis         ... NOT available
Auxiliary 'external' fitting basis          ... NOT available
Integral threshold                          ...     2.500000e-11
Primitive cut-off                           ...     2.500000e-12
Primitive pair pre-selection threshold      ...     2.500000e-12

Calculating pre-screening integrals         ... done (  0.0 sec) Dimension = 63
Organizing shell pair data                  ... done (  0.0 sec)
Shell pair information
Total number of shell pairs                 ...      2016
Shell pairs after pre-screening             ...      1945
Total number of primitive shell pairs       ...      7252
Primitive shell pairs kept                  ...      5336
          la=0 lb=0:    602 shell pairs
          la=1 lb=0:    712 shell pairs
          la=1 lb=1:    226 shell pairs
          la=2 lb=0:    235 shell pairs
          la=2 lb=1:    143 shell pairs
          la=2 lb=2:     27 shell pairs

Calculating one electron integrals          ... done (  0.0 sec)
Calculating RI/J V-Matrix + Cholesky decomp.... done (  0.0 sec)
Calculating Nuclear repulsion               ... done (  0.0 sec) ENN=    298.781782194759 Eh

SHARK setup successfully completed in   0.1 seconds

Maximum memory used throughout the entire GTOINT-calculation: 10.7 MB


           ************************************************************
           *        Program running with 8 parallel MPI-processes     *
           *              working on a common directory               *
           ************************************************************
-------------------------------------------------------------------------------
                                 ORCA SCF
-------------------------------------------------------------------------------

------------
SCF SETTINGS
------------
Hamiltonian:
 Density Functional     Method          .... DFT(GTOs)
 Exchange Functional    Exchange        .... PBE
   PBE kappa parameter   XKappa         ....  0.804000
   PBE mue parameter    XMuePBE         ....  0.219520
 Correlation Functional Correlation     .... PBE
   PBE beta parameter  CBetaPBE         ....  0.066725
 LDA part of GGA corr.  LDAOpt          .... PW91-LDA
 Gradients option       PostSCFGGA      .... off
 Hybrid DFT is turned on
   Fraction HF Exchange ScalHFX         ....  0.250000
   Scaling of DF-GGA-X  ScalDFX         ....  0.750000
   Scaling of DF-GGA-C  ScalDFC         ....  1.000000
   Scaling of DF-LDA-C  ScalLDAC        ....  1.000000
   Perturbative correction              ....  0.000000
   Density functional embedding theory  .... OFF
   NL short-range parameter             ....  6.900000
 RI-approximation to the Coulomb term is turned on
   Number of AuxJ basis functions       .... 420
   RIJ-COSX (HFX calculated with COS-X)).... on


General Settings:
 Integral files         IntName         .... path_opt0_orca
 Hartree-Fock type      HFTyp           .... UHF
 Total Charge           Charge          ....    0
 Multiplicity           Mult            ....    2
 Number of Electrons    NEL             ....   53
 Basis Dimension        Dim             ....  133
 Nuclear Repulsion      ENuc            ....    298.7817821948 Eh

Convergence Acceleration:
 DIIS                   CNVDIIS         .... on
   Start iteration      DIISMaxIt       ....    12
   Startup error        DIISStart       ....  0.200000
   # of expansion vecs  DIISMaxEq       ....     5
   Bias factor          DIISBfac        ....   1.050
   Max. coefficient     DIISMaxC        ....  10.000
 Trust-Rad. Augm. Hess. CNVTRAH         .... auto
   Auto Start mean grad. ratio tolernc. ....  1.125000
   Auto Start start iteration           ....    20
   Auto Start num. interpolation iter.  ....    10
   Max. Number of Micro iterations      ....    16
   Max. Number of Macro iterations      .... Maxiter - #DIIS iter
   Number of Davidson start vectors     ....     2
   Converg. threshold I  (grad. norm)   ....   1.000e-05
   Converg. threshold II (energy diff.) ....   1.000e-08
   Grad. Scal. Fac. for Micro threshold ....   0.100
   Minimum threshold for Micro iter.    ....   0.010
   NR start threshold (gradient norm)   ....   0.001
   Initial trust radius                 ....   0.400
   Minimum AH scaling param. (alpha)    ....   1.000
   Maximum AH scaling param. (alpha)    .... 1000.000
   Orbital update algorithm             .... Taylor
   White noise on init. David. guess    .... on
   Maximum white noise                  ....   0.010
   Quad. conv. algorithm                .... NR
 SOSCF                  CNVSOSCF        .... off
 Level Shifting         CNVShift        .... on
   Level shift para.    LevelShift      ....    0.2500
   Turn off err/grad.   ShiftErr        ....    0.0010
 Zerner damping         CNVZerner       .... off
 Static damping         CNVDamp         .... on
   Fraction old density DampFac         ....    0.7000
   Max. Damping (<1)    DampMax         ....    0.9800
   Min. Damping (>=0)   DampMin         ....    0.0000
   Turn off err/grad.   DampErr         ....    0.1000
 Fernandez-Rico         CNVRico         .... off

SCF Procedure:
 Maximum # iterations   MaxIter         ....   250
 SCF integral mode      SCFMode         .... Direct
   Integral package                     .... SHARK and LIBINT hybrid scheme
 Reset frequency        DirectResetFreq ....    20
 Integral Threshold     Thresh          ....  2.500e-11 Eh
 Primitive CutOff       TCut            ....  2.500e-12 Eh

Convergence Tolerance:
 Convergence Check Mode ConvCheckMode   .... Total+1el-Energy
 Convergence forced     ConvForced      .... 0
 Energy Change          TolE            ....  1.000e-08 Eh
 1-El. energy change                    ....  1.000e-05 Eh
 DIIS Error             TolErr          ....  5.000e-07


Diagonalization of the overlap matrix:
Smallest eigenvalue                        ... 8.126e-04
Time for diagonalization                   ...    0.003 sec
Threshold for overlap eigenvalues          ... 1.000e-08
Number of eigenvalues below threshold      ... 0
Time for construction of square roots      ...    0.001 sec
Total time needed                          ...    0.005 sec

Time for model grid setup =    0.042 sec

------------------------------
INITIAL GUESS: MODEL POTENTIAL
------------------------------
Loading Hartree-Fock densities                     ... done
Calculating cut-offs                               ... done
Initializing the effective Hamiltonian             ... done
Setting up the integral package (SHARK)            ... done
Starting the Coulomb interaction                   ... done (   0.0 sec)
Reading the grid                                   ... done
Mapping shells                                     ... done
Starting the XC term evaluation                    ... done (   0.0 sec)
  promolecular density results
     # of electrons  =     52.998395956
     EX              =    -43.886133665
     EC              =     -1.757716518
     EX+EC           =    -45.643850183
Transforming the Hamiltonian                       ... done (   0.0 sec)
Diagonalizing the Hamiltonian                      ... done (   0.0 sec)
Back transforming the eigenvectors                 ... done (   0.0 sec)
Now organizing SCF variables                       ... done
                      ------------------
                      INITIAL GUESS DONE (   0.1 sec)
                      ------------------
-------------------
DFT GRID GENERATION
-------------------

General Integration Accuracy     IntAcc      ... 4.388
Radial Grid Type                 RadialGrid  ... OptM3 with GC (2021)
Angular Grid (max. ang.)         AngularGrid ... 4 (Lebedev-302)
Angular grid pruning method      GridPruning ... 4 (adaptive)
Weight generation scheme         WeightScheme... Becke
Basis function cutoff            BFCut       ... 1.0000e-11
Integration weight cutoff        WCut        ... 1.0000e-14
Angular grids for H and He will be reduced by one unit
Partially contracted basis set               ... off
Rotationally invariant grid construction     ... off

Total number of grid points                  ...    64853
Total number of batches                      ...     1021
Average number of points per batch           ...       63
Average number of grid points per atom       ...     4632
Time for grid setup =    0.245 sec

--------------------
COSX GRID GENERATION
--------------------

GRIDX 1
-------
General Integration Accuracy     IntAcc      ... 3.816
Radial Grid Type                 RadialGrid  ... OptM3 with GC (2021)
Angular Grid (max. ang.)         AngularGrid ... 1 (Lebedev-50)
Angular grid pruning method      GridPruning ... 4 (adaptive)
Weight generation scheme         WeightScheme... Becke
Basis function cutoff            BFCut       ... 1.0000e-11
Integration weight cutoff        WCut        ... 1.0000e-14
Angular grids for H and He will be reduced by one unit
Partially contracted basis set               ... on
Rotationally invariant grid construction     ... off

Total number of grid points                  ...     8287
Total number of batches                      ...      135
Average number of points per batch           ...       61
Average number of grid points per atom       ...      592
UseSFitting                                  ... on

GRIDX 2
-------
General Integration Accuracy     IntAcc      ... 4.020
Radial Grid Type                 RadialGrid  ... OptM3 with GC (2021)
Angular Grid (max. ang.)         AngularGrid ... 2 (Lebedev-110)
Angular grid pruning method      GridPruning ... 4 (adaptive)
Weight generation scheme         WeightScheme... Becke
Basis function cutoff            BFCut       ... 1.0000e-11
Integration weight cutoff        WCut        ... 1.0000e-14
Angular grids for H and He will be reduced by one unit
Partially contracted basis set               ... on
Rotationally invariant grid construction     ... off

Total number of grid points                  ...    18031
Total number of batches                      ...      290
Average number of points per batch           ...       62
Average number of grid points per atom       ...     1288
UseSFitting                                  ... on

GRIDX 3
-------
General Integration Accuracy     IntAcc      ... 4.338
Radial Grid Type                 RadialGrid  ... OptM3 with GC (2021)
Angular Grid (max. ang.)         AngularGrid ... 3 (Lebedev-194)
Angular grid pruning method      GridPruning ... 4 (adaptive)
Weight generation scheme         WeightScheme... Becke
Basis function cutoff            BFCut       ... 1.0000e-11
Integration weight cutoff        WCut        ... 1.0000e-14
Angular grids for H and He will be reduced by one unit
Partially contracted basis set               ... on
Rotationally invariant grid construction     ... off

Total number of grid points                  ...    39605
Total number of batches                      ...      626
Average number of points per batch           ...       63
Average number of grid points per atom       ...     2829
UseSFitting                                  ... on

Time for X-Grid setup             =    0.179 sec

--------------
SCF ITERATIONS
--------------
ITER       Energy         Delta-E        Max-DP      RMS-DP      [F,P]     Damp
               ***  Starting incremental Fock matrix formation  ***
  0   -344.2360270067   0.000000000000 0.03268188  0.00105698  0.0727149 0.7000
  1   -344.2913565919  -0.055329585245 0.02087314  0.00075196  0.0372861 0.7000
                               ***Turning on DIIS***
  2   -344.3165375475  -0.025180955535 0.03251536  0.00139306  0.0169463 0.0000
  3   -344.3554050110  -0.038867463540 0.01488745  0.00052839  0.0188867 0.0000
  4   -344.3641774657  -0.008772454672 0.00497805  0.00016021  0.0038499 0.0000
  5   -344.3647100740  -0.000532608293 0.00311829  0.00010081  0.0029341 0.0000
  6   -344.3649297523  -0.000219678393 0.00292371  0.00007722  0.0022621 0.0000
  7   -344.3650843119  -0.000154559518 0.00247109  0.00005933  0.0011241 0.0000
  8   -344.3651477229  -0.000063411055 0.00220139  0.00007150  0.0006921 0.0000
               *** Restarting incremental Fock matrix formation ***
                                   *** Resetting DIIS ***
  9   -344.3651320807   0.000015642246 0.00055297  0.00002653  0.0003866 0.0000
 10   -344.3651316665   0.000000414187 0.00052114  0.00001366  0.0005991 0.0000
 11   -344.3651355492  -0.000003882691 0.00015058  0.00000468  0.0001598 0.0000
 12   -344.3651357096  -0.000000160406 0.00009850  0.00000374  0.0001515 0.0000
 13   -344.3651359329  -0.000000223287 0.00008224  0.00000182  0.0000420 0.0000
 14   -344.3651359619  -0.000000029015 0.00001791  0.00000069  0.0000203 0.0000
 15   -344.3651359703  -0.000000008366 0.00000871  0.00000028  0.0000045 0.0000
 16   -344.3651359705  -0.000000000212 0.00000579  0.00000021  0.0000045 0.0000
 17   -344.3651359731  -0.000000002613 0.00000422  0.00000014  0.0000030 0.0000
                 **** Energy Check signals convergence ****

               *****************************************************
               *                     SUCCESS                       *
               *           SCF CONVERGED AFTER  18 CYCLES          *
               *****************************************************

Old exchange energy                            =    -11.179043457 Eh
New exchange energy                            =    -11.179016407 Eh
Exchange energy change after final integration =      0.000027050 Eh
Total energy after final integration           =   -344.365108926 Eh
Final COS-X integration done in                =     0.660 sec

----------------
TOTAL SCF ENERGY
----------------

Total Energy       :         -344.36510893 Eh           -9370.65101 eV

Components:
Nuclear Repulsion  :          298.78178219 Eh            8130.26563 eV
Electronic Energy  :         -643.14689112 Eh          -17500.91664 eV
One Electron Energy:        -1060.69942785 Eh          -28863.09880 eV
Two Electron Energy:          417.55253673 Eh           11362.18217 eV
Max COSX asymmetry :            0.00000063 Eh               0.00002 eV

Virial components:
Potential Energy   :         -686.00308912 Eh          -18667.09307 eV
Kinetic Energy     :          341.63798019 Eh            9296.44206 eV
Virial Ratio       :            2.00798251


DFT components:
N(Alpha)           :       27.000010984909 electrons
N(Beta)            :       26.000006718315 electrons
N(Total)           :       53.000017703224 electrons
E(X)               :      -33.480218192694 Eh       
E(C)               :       -1.769165172888 Eh       
E(XC)              :      -35.249383365582 Eh       
DFET-embed. en.    :        0.000000000000 Eh       

---------------
SCF CONVERGENCE
---------------

  Last Energy change         ...   -3.2031e-09  Tolerance :   1.0000e-08
  Last MAX-Density change    ...    0.0000e+00  Tolerance :   1.0000e-07
  Last RMS-Density change    ...    0.0000e+00  Tolerance :   5.0000e-09
  Last DIIS Error            ...    2.3860e-06  Tolerance :   5.0000e-07

             **** THE GBW FILE WAS UPDATED (path_opt0_orca.gbw) ****
             **** DENSITY path_opt0_orca.scfp WAS UPDATED ****
             **** ENERGY FILE WAS UPDATED (path_opt0_orca.en.tmp) ****
----------------------
UHF SPIN CONTAMINATION
----------------------

Warning: in a DFT calculation there is little theoretical justification to 
         calculate <S**2> as in Hartree-Fock theory. We will do it anyways
         but you should keep in mind that the values have only limited relevance

Expectation value of <S**2>     :     0.782870
Ideal value S*(S+1) for S=0.5   :     0.750000
Deviation                       :     0.032870

             **** THE GBW FILE WAS UPDATED (path_opt0_orca.gbw) ****
             **** DENSITY path_opt0_orca.scfp WAS UPDATED ****
----------------
ORBITAL ENERGIES
----------------
                 SPIN UP ORBITALS
  NO   OCC          E(Eh)            E(eV) 
   0   1.0000     -19.263835      -524.1956 
   1   1.0000     -19.254085      -523.9303 
   2   1.0000     -10.280647      -279.7506 
   3   1.0000     -10.245881      -278.8046 
   4   1.0000     -10.245804      -278.8025 
   5   1.0000     -10.241153      -278.6759 
   6   1.0000     -10.230684      -278.3911 
   7   1.0000      -1.089446       -29.6453 
   8   1.0000      -0.960515       -26.1369 
   9   1.0000      -0.876679       -23.8557 
  10   1.0000      -0.745248       -20.2792 
  11   1.0000      -0.705556       -19.1991 
  12   1.0000      -0.585530       -15.9331 
  13   1.0000      -0.564065       -15.3490 
  14   1.0000      -0.543998       -14.8029 
  15   1.0000      -0.524204       -14.2643 
  16   1.0000      -0.473725       -12.8907 
  17   1.0000      -0.442736       -12.0475 
  18   1.0000      -0.416152       -11.3241 
  19   1.0000      -0.406202       -11.0533 
  20   1.0000      -0.403304       -10.9745 
  21   1.0000      -0.395870       -10.7722 
  22   1.0000      -0.352871        -9.6021 
  23   1.0000      -0.336708        -9.1623 
  24   1.0000      -0.323339        -8.7985 
  25   1.0000      -0.273153        -7.4329 
  26   1.0000      -0.200412        -5.4535 
  27   0.0000      -0.047793        -1.3005 
  28   0.0000       0.040460         1.1010 
  29   0.0000       0.070885         1.9289 
  30   0.0000       0.090775         2.4701 
  31   0.0000       0.111157         3.0247 
  32   0.0000       0.122529         3.3342 
  33   0.0000       0.135521         3.6877 
  34   0.0000       0.145821         3.9680 
  35   0.0000       0.167608         4.5609 
  36   0.0000       0.200056         5.4438 
  37   0.0000       0.218062         5.9338 
  38   0.0000       0.271330         7.3833 
  39   0.0000       0.299865         8.1598 
  40   0.0000       0.353973         9.6321 
  41   0.0000       0.380233        10.3467 
  42   0.0000       0.418336        11.3835 
  43   0.0000       0.449164        12.2224 
  44   0.0000       0.466228        12.6867 
  45   0.0000       0.496069        13.4987 
  46   0.0000       0.507054        13.7976 
  47   0.0000       0.526573        14.3288 
  48   0.0000       0.549503        14.9527 
  49   0.0000       0.573148        15.5961 
  50   0.0000       0.604050        16.4370 
  51   0.0000       0.617459        16.8019 
  52   0.0000       0.627323        17.0703 
  53   0.0000       0.634378        17.2623 
  54   0.0000       0.654622        17.8132 
  55   0.0000       0.657199        17.8833 
  56   0.0000       0.675458        18.3802 
  57   0.0000       0.689676        18.7670 
  58   0.0000       0.703019        19.1301 
  59   0.0000       0.712991        19.4015 
  60   0.0000       0.727889        19.8069 
  61   0.0000       0.750110        20.4115 
  62   0.0000       0.786492        21.4015 
  63   0.0000       0.802455        21.8359 
  64   0.0000       0.809234        22.0204 
  65   0.0000       0.836604        22.7652 
  66   0.0000       0.919586        25.0232 
  67   0.0000       0.966689        26.3050 
  68   0.0000       1.023963        27.8634 
  69   0.0000       1.058394        28.8004 
  70   0.0000       1.063390        28.9363 
  71   0.0000       1.096331        29.8327 
  72   0.0000       1.173438        31.9309 
  73   0.0000       1.189266        32.3616 
  74   0.0000       1.205444        32.8018 
  75   0.0000       1.231855        33.5205 
  76   0.0000       1.278264        34.7833 
  77   0.0000       1.284917        34.9644 
  78   0.0000       1.373188        37.3663 
  79   0.0000       1.461719        39.7754 
  80   0.0000       1.489865        40.5413 
  81   0.0000       1.536767        41.8176 
  82   0.0000       1.571252        42.7559 
  83   0.0000       1.574984        42.8575 
  84   0.0000       1.603246        43.6266 
  85   0.0000       1.659261        45.1508 
  86   0.0000       1.676148        45.6103 
  87   0.0000       1.692099        46.0444 
  88   0.0000       1.736027        47.2397 
  89   0.0000       1.767606        48.0990 
  90   0.0000       1.798743        48.9463 
  91   0.0000       1.807516        49.1850 
  92   0.0000       1.840405        50.0800 
  93   0.0000       1.858059        50.5604 
  94   0.0000       1.881467        51.1973 
  95   0.0000       1.896858        51.6161 
  96   0.0000       1.933863        52.6231 
  97   0.0000       1.946726        52.9731 
  98   0.0000       1.962763        53.4095 
  99   0.0000       2.031560        55.2816 
 100   0.0000       2.052435        55.8496 
 101   0.0000       2.112018        57.4709 
 102   0.0000       2.124309        57.8054 
 103   0.0000       2.151724        58.5514 
 104   0.0000       2.200133        59.8687 
 105   0.0000       2.212749        60.2120 
 106   0.0000       2.277454        61.9727 
 107   0.0000       2.290020        62.3146 
 108   0.0000       2.330760        63.4232 
 109   0.0000       2.413342        65.6704 
 110   0.0000       2.458265        66.8928 
 111   0.0000       2.503072        68.1120 
 112   0.0000       2.526630        68.7531 
 113   0.0000       2.544843        69.2487 
 114   0.0000       2.559509        69.6478 
 115   0.0000       2.642858        71.9158 
 116   0.0000       2.685988        73.0895 
 117   0.0000       2.705102        73.6096 
 118   0.0000       2.716689        73.9249 
 119   0.0000       2.748201        74.7823 
 120   0.0000       2.828574        76.9694 
 121   0.0000       2.845583        77.4323 
 122   0.0000       2.953023        80.3559 
 123   0.0000       2.983090        81.1740 
 124   0.0000       2.986774        81.2743 
 125   0.0000       3.058064        83.2141 
 126   0.0000       3.089863        84.0794 
 127   0.0000       3.156252        85.8860 
 128   0.0000       3.172491        86.3279 
 129   0.0000       3.346559        91.0645 
 130   0.0000       3.437353        93.5351 
 131   0.0000       3.511613        95.5558 
 132   0.0000       3.755899       102.2032 

                 SPIN DOWN ORBITALS
  NO   OCC          E(Eh)            E(eV) 
   0   1.0000     -19.263331      -524.1819 
   1   1.0000     -19.253103      -523.9036 
   2   1.0000     -10.281226      -279.7664 
   3   1.0000     -10.245084      -278.7829 
   4   1.0000     -10.236388      -278.5463 
   5   1.0000     -10.235529      -278.5229 
   6   1.0000     -10.231399      -278.4105 
   7   1.0000      -1.087568       -29.5942 
   8   1.0000      -0.957509       -26.0552 
   9   1.0000      -0.867212       -23.5980 
  10   1.0000      -0.737818       -20.0771 
  11   1.0000      -0.692658       -18.8482 
  12   1.0000      -0.577315       -15.7096 
  13   1.0000      -0.558482       -15.1971 
  14   1.0000      -0.537475       -14.6254 
  15   1.0000      -0.521373       -14.1873 
  16   1.0000      -0.469845       -12.7851 
  17   1.0000      -0.439021       -11.9464 
  18   1.0000      -0.410138       -11.1604 
  19   1.0000      -0.401041       -10.9129 
  20   1.0000      -0.398728       -10.8500 
  21   1.0000      -0.389922       -10.6103 
  22   1.0000      -0.346988        -9.4420 
  23   1.0000      -0.326196        -8.8762 
  24   1.0000      -0.307162        -8.3583 
  25   1.0000      -0.271934        -7.3997 
  26   0.0000      -0.073326        -1.9953 
  27   0.0000      -0.034159        -0.9295 
  28   0.0000       0.062105         1.6900 
  29   0.0000       0.073241         1.9930 
  30   0.0000       0.093171         2.5353 
  31   0.0000       0.115489         3.1426 
  32   0.0000       0.125651         3.4191 
  33   0.0000       0.140182         3.8146 
  34   0.0000       0.149806         4.0764 
  35   0.0000       0.171850         4.6763 
  36   0.0000       0.204014         5.5515 
  37   0.0000       0.222589         6.0570 
  38   0.0000       0.276752         7.5308 
  39   0.0000       0.306457         8.3391 
  40   0.0000       0.361437         9.8352 
  41   0.0000       0.384171        10.4538 
  42   0.0000       0.421882        11.4800 
  43   0.0000       0.470223        12.7954 
  44   0.0000       0.472009        12.8440 
  45   0.0000       0.508875        13.8472 
  46   0.0000       0.512220        13.9382 
  47   0.0000       0.535664        14.5762 
  48   0.0000       0.567369        15.4389 
  49   0.0000       0.596571        16.2335 
  50   0.0000       0.605686        16.4816 
  51   0.0000       0.622720        16.9451 
  52   0.0000       0.636491        17.3198 
  53   0.0000       0.644071        17.5261 
  54   0.0000       0.661007        17.9869 
  55   0.0000       0.667651        18.1677 
  56   0.0000       0.680872        18.5275 
  57   0.0000       0.692788        18.8517 
  58   0.0000       0.703507        19.1434 
  59   0.0000       0.714942        19.4546 
  60   0.0000       0.733495        19.9594 
  61   0.0000       0.754993        20.5444 
  62   0.0000       0.791345        21.5336 
  63   0.0000       0.810037        22.0422 
  64   0.0000       0.815561        22.1925 
  65   0.0000       0.840534        22.8721 
  66   0.0000       0.922502        25.1025 
  67   0.0000       0.969026        26.3685 
  68   0.0000       1.027506        27.9598 
  69   0.0000       1.060385        28.8545 
  70   0.0000       1.068142        29.0656 
  71   0.0000       1.101475        29.9727 
  72   0.0000       1.175947        31.9991 
  73   0.0000       1.195882        32.5416 
  74   0.0000       1.208398        32.8822 
  75   0.0000       1.234155        33.5831 
  76   0.0000       1.284014        34.9398 
  77   0.0000       1.298695        35.3393 
  78   0.0000       1.375450        37.4279 
  79   0.0000       1.462878        39.8069 
  80   0.0000       1.493467        40.6393 
  81   0.0000       1.543934        42.0126 
  82   0.0000       1.576155        42.8894 
  83   0.0000       1.581867        43.0448 
  84   0.0000       1.606177        43.7063 
  85   0.0000       1.664171        45.2844 
  86   0.0000       1.679423        45.6994 
  87   0.0000       1.695330        46.1323 
  88   0.0000       1.738928        47.3186 
  89   0.0000       1.772483        48.2317 
  90   0.0000       1.809842        49.2483 
  91   0.0000       1.816588        49.4319 
  92   0.0000       1.844637        50.1951 
  93   0.0000       1.866869        50.8001 
  94   0.0000       1.895431        51.5773 
  95   0.0000       1.903537        51.7979 
  96   0.0000       1.941521        52.8315 
  97   0.0000       1.954496        53.1845 
  98   0.0000       1.974432        53.7270 
  99   0.0000       2.035783        55.3965 
 100   0.0000       2.058954        56.0270 
 101   0.0000       2.115014        57.5524 
 102   0.0000       2.129959        57.9591 
 103   0.0000       2.163488        58.8715 
 104   0.0000       2.209511        60.1239 
 105   0.0000       2.215004        60.2733 
 106   0.0000       2.288520        62.2738 
 107   0.0000       2.302460        62.6531 
 108   0.0000       2.345432        63.8225 
 109   0.0000       2.421850        65.9019 
 110   0.0000       2.462557        67.0096 
 111   0.0000       2.510813        68.3227 
 112   0.0000       2.531792        68.8936 
 113   0.0000       2.547805        69.3293 
 114   0.0000       2.570347        69.9427 
 115   0.0000       2.649633        72.1002 
 116   0.0000       2.689509        73.1853 
 117   0.0000       2.707323        73.6700 
 118   0.0000       2.720463        74.0276 
 119   0.0000       2.751274        74.8660 
 120   0.0000       2.833074        77.0919 
 121   0.0000       2.850182        77.5574 
 122   0.0000       2.956226        80.4430 
 123   0.0000       2.985248        81.2327 
 124   0.0000       2.987864        81.3039 
 125   0.0000       3.061107        83.2970 
 126   0.0000       3.092623        84.1546 
 127   0.0000       3.158023        85.9342 
 128   0.0000       3.174963        86.3951 
 129   0.0000       3.347253        91.0834 
 130   0.0000       3.440299        93.6153 
 131   0.0000       3.512364        95.5763 
 132   0.0000       3.756990       102.2329 

                    ********************************
                    * MULLIKEN POPULATION ANALYSIS *
                    ********************************

--------------------------------------------
MULLIKEN ATOMIC CHARGES AND SPIN POPULATIONS
--------------------------------------------
   0 O :   -0.205314    0.034942
   1 O :   -0.244771   -0.002079
   2 C :    0.102138   -0.048034
   3 C :   -0.050127    0.660404
   4 C :    0.002587   -0.305032
   5 C :   -0.121964    0.702183
   6 C :    0.082258   -0.067587
   7 H :    0.193258   -0.000833
   8 H :    0.040975    0.023207
   9 H :    0.043318   -0.032130
  10 H :    0.030338    0.010404
  11 H :    0.030174   -0.034914
  12 H :    0.055340    0.031509
  13 H :    0.041791    0.027961
Sum of atomic charges         :   -0.0000000
Sum of atomic spin populations:    1.0000000

-----------------------------------------------------
MULLIKEN REDUCED ORBITAL CHARGES AND SPIN POPULATIONS
-----------------------------------------------------
CHARGE
  0 O s       :     3.821258  s :     3.821258
      pz      :     1.687404  p :     4.372816
      px      :     1.296983
      py      :     1.388428
      dz2     :     0.001040  d :     0.011240
      dxz     :     0.001683
      dyz     :     0.003512
      dx2y2   :     0.003446
      dxy     :     0.001558
  1 O s       :     3.873257  s :     3.873257
      pz      :     1.460266  p :     4.354344
      px      :     1.163782
      py      :     1.730295
      dz2     :     0.004986  d :     0.017170
      dxz     :     0.004755
      dyz     :     0.002775
      dx2y2   :     0.002012
      dxy     :     0.002642
  2 C s       :     3.039299  s :     3.039299
      pz      :     0.839890  p :     2.779114
      px      :     0.944059
      py      :     0.995164
      dz2     :     0.014732  d :     0.079449
      dxz     :     0.021860
      dyz     :     0.019932
      dx2y2   :     0.009418
      dxy     :     0.013507
  3 C s       :     3.217372  s :     3.217372
      pz      :     0.985134  p :     2.799316
      px      :     0.935442
      py      :     0.878740
      dz2     :     0.002996  d :     0.033439
      dxz     :     0.005817
      dyz     :     0.004532
      dx2y2   :     0.009544
      dxy     :     0.010549
  4 C s       :     3.169847  s :     3.169847
      pz      :     0.973031  p :     2.788301
      px      :     0.861549
      py      :     0.953721
      dz2     :     0.005113  d :     0.039265
      dxz     :     0.006021
      dyz     :     0.005950
      dx2y2   :     0.011365
      dxy     :     0.010817
  5 C s       :     3.224964  s :     3.224964
      pz      :     0.964614  p :     2.860348
      px      :     0.966279
      py      :     0.929455
      dz2     :     0.004463  d :     0.036652
      dxz     :     0.005679
      dyz     :     0.005117
      dx2y2   :     0.010027
      dxy     :     0.011366
  6 C s       :     2.921145  s :     2.921145
      pz      :     1.005818  p :     2.961407
      px      :     0.952894
      py      :     1.002696
      dz2     :     0.007054  d :     0.035190
      dxz     :     0.006328
      dyz     :     0.005778
      dx2y2   :     0.008884
      dxy     :     0.007145
  7 H s       :     0.739905  s :     0.739905
      pz      :     0.024702  p :     0.066837
      px      :     0.011916
      py      :     0.030219
  8 H s       :     0.938317  s :     0.938317
      pz      :     0.006956  p :     0.020708
      px      :     0.007430
      py      :     0.006322
  9 H s       :     0.932510  s :     0.932510
      pz      :     0.007570  p :     0.024172
      px      :     0.003102
      py      :     0.013500
 10 H s       :     0.946257  s :     0.946257
      pz      :     0.004484  p :     0.023406
      px      :     0.014300
      py      :     0.004621
 11 H s       :     0.946284  s :     0.946284
      pz      :     0.005845  p :     0.023542
      px      :     0.008402
      py      :     0.009295
 12 H s       :     0.921286  s :     0.921286
      pz      :     0.013871  p :     0.023374
      px      :     0.005257
      py      :     0.004246
 13 H s       :     0.934891  s :     0.934891
      pz      :     0.007347  p :     0.023318
      px      :     0.005740
      py      :     0.010231

SPIN
  0 O s       :     0.000292  s :     0.000292
      pz      :     0.005735  p :     0.034638
      px      :     0.020578
      py      :     0.008325
      dz2     :     0.000017  d :     0.000012
      dxz     :    -0.000003
      dyz     :    -0.000004
      dx2y2   :    -0.000018
      dxy     :     0.000020
  1 O s       :     0.002237  s :     0.002237
      pz      :     0.009964  p :    -0.004515
      px      :    -0.007181
      py      :    -0.007299
      dz2     :     0.000081  d :     0.000199
      dxz     :     0.000013
      dyz     :     0.000017
      dx2y2   :     0.000022
      dxy     :     0.000066
  2 C s       :    -0.017590  s :    -0.017590
      pz      :    -0.009543  p :    -0.034346
      px      :    -0.012200
      py      :    -0.012604
      dz2     :    -0.000064  d :     0.003902
      dxz     :     0.003085
      dyz     :     0.000202
      dx2y2   :     0.000038
      dxy     :     0.000641
  3 C s       :     0.094998  s :     0.094998
      pz      :     0.429846  p :     0.568117
      px      :     0.022652
      py      :     0.115619
      dz2     :    -0.000918  d :    -0.002712
      dxz     :    -0.000460
      dyz     :    -0.001056
      dx2y2   :    -0.000044
      dxy     :    -0.000234
  4 C s       :    -0.054293  s :    -0.054293
      pz      :    -0.165547  p :    -0.259547
      px      :    -0.024536
      py      :    -0.069464
      dz2     :     0.003341  d :     0.008808
      dxz     :     0.001100
      dyz     :     0.002999
      dx2y2   :     0.001103
      dxy     :     0.000265
  5 C s       :     0.094239  s :     0.094239
      pz      :     0.464289  p :     0.610326
      px      :     0.022636
      py      :     0.123402
      dz2     :    -0.001202  d :    -0.002383
      dxz     :     0.000137
      dyz     :    -0.001138
      dx2y2   :    -0.000213
      dxy     :     0.000033
  6 C s       :    -0.021233  s :    -0.021233
      pz      :    -0.013647  p :    -0.050688
      px      :    -0.029330
      py      :    -0.007711
      dz2     :     0.000553  d :     0.004334
      dxz     :     0.002939
      dyz     :     0.000235
      dx2y2   :    -0.000006
      dxy     :     0.000612
  7 H s       :    -0.001215  s :    -0.001215
      pz      :     0.000082  p :     0.000382
      px      :     0.000264
      py      :     0.000036
  8 H s       :     0.023212  s :     0.023212
      pz      :     0.000045  p :    -0.000005
      px      :    -0.000197
      py      :     0.000147
  9 H s       :    -0.035573  s :    -0.035573
      pz      :     0.002697  p :     0.003443
      px      :    -0.000087
      py      :     0.000834
 10 H s       :     0.011432  s :     0.011432
      pz      :    -0.000764  p :    -0.001028
      px      :    -0.000073
      py      :    -0.000191
 11 H s       :    -0.038572  s :    -0.038572
      pz      :     0.002881  p :     0.003657
      px      :     0.000060
      py      :     0.000716
 12 H s       :     0.031738  s :     0.031738
      pz      :    -0.000126  p :    -0.000229
      px      :    -0.000123
      py      :     0.000020
 13 H s       :     0.028186  s :     0.028186
      pz      :    -0.000053  p :    -0.000225
      px      :    -0.000134
      py      :    -0.000038


                     *******************************
                     * LOEWDIN POPULATION ANALYSIS *
                     *******************************

-------------------------------------------
LOEWDIN ATOMIC CHARGES AND SPIN POPULATIONS
-------------------------------------------
   0 O :   -0.089770    0.030795
   1 O :   -0.064306    0.006288
   2 C :    0.018123    0.001047
   3 C :   -0.023273    0.511717
   4 C :   -0.038598   -0.160032
   5 C :   -0.008525    0.552835
   6 C :   -0.059914   -0.009269
   7 H :    0.070520    0.000505
   8 H :    0.021362    0.019694
   9 H :    0.032800   -0.001472
  10 H :    0.036494    0.000385
  11 H :    0.021715   -0.001343
  12 H :    0.043052    0.026405
  13 H :    0.040320    0.022442

----------------------------------------------------
LOEWDIN REDUCED ORBITAL CHARGES AND SPIN POPULATIONS
----------------------------------------------------
CHARGE
  0 O s       :     3.613975  s :     3.613975
      pz      :     1.710650  p :     4.456738
      px      :     1.306255
      py      :     1.439832
      dz2     :     0.001056  d :     0.019057
      dxz     :     0.002109
      dyz     :     0.007201
      dx2y2   :     0.006199
      dxy     :     0.002492
  1 O s       :     3.606561  s :     3.606561
      pz      :     1.519300  p :     4.428519
      px      :     1.190300
      py      :     1.718919
      dz2     :     0.008042  d :     0.029225
      dxz     :     0.008420
      dyz     :     0.004381
      dx2y2   :     0.003872
      dxy     :     0.004510
  2 C s       :     2.838753  s :     2.838753
      pz      :     0.934055  p :     2.959314
      px      :     0.993663
      py      :     1.031596
      dz2     :     0.031954  d :     0.183810
      dxz     :     0.052074
      dyz     :     0.047410
      dx2y2   :     0.018551
      dxy     :     0.033821
  3 C s       :     2.887949  s :     2.887949
      pz      :     0.992749  p :     3.051080
      px      :     1.035074
      py      :     1.023257
      dz2     :     0.006505  d :     0.084245
      dxz     :     0.013709
      dyz     :     0.009446
      dx2y2   :     0.024493
      dxy     :     0.030092
  4 C s       :     2.864517  s :     2.864517
      pz      :     0.975053  p :     3.072055
      px      :     1.050642
      py      :     1.046360
      dz2     :     0.012028  d :     0.102027
      dxz     :     0.013113
      dyz     :     0.015111
      dx2y2   :     0.031805
      dxy     :     0.029970
  5 C s       :     2.883500  s :     2.883500
      pz      :     0.964859  p :     3.035203
      px      :     1.036523
      py      :     1.033821
      dz2     :     0.008806  d :     0.089821
      dxz     :     0.012364
      dyz     :     0.011792
      dx2y2   :     0.028276
      dxy     :     0.028584
  6 C s       :     2.835697  s :     2.835697
      pz      :     1.057550  p :     3.131560
      px      :     1.040667
      py      :     1.033342
      dz2     :     0.019039  d :     0.092657
      dxz     :     0.015159
      dyz     :     0.015548
      dx2y2   :     0.025259
      dxy     :     0.017651
  7 H s       :     0.748259  s :     0.748259
      pz      :     0.067402  p :     0.181220
      px      :     0.033184
      py      :     0.080635
  8 H s       :     0.912336  s :     0.912336
      pz      :     0.022595  p :     0.066302
      px      :     0.023052
      py      :     0.020655
  9 H s       :     0.893424  s :     0.893424
      pz      :     0.023321  p :     0.073775
      px      :     0.011492
      py      :     0.038963
 10 H s       :     0.896077  s :     0.896077
      pz      :     0.013571  p :     0.067429
      px      :     0.039409
      py      :     0.014449
 11 H s       :     0.905901  s :     0.905901
      pz      :     0.019101  p :     0.072384
      px      :     0.026193
      py      :     0.027090
 12 H s       :     0.889735  s :     0.889735
      pz      :     0.038532  p :     0.067213
      px      :     0.015463
      py      :     0.013219
 13 H s       :     0.892093  s :     0.892093
      pz      :     0.019775  p :     0.067587
      px      :     0.016788
      py      :     0.031024

SPIN
  0 O s       :     0.000068  s :     0.000068
      pz      :     0.005174  p :     0.030721
      px      :     0.018057
      py      :     0.007489
      dz2     :     0.000022  d :     0.000007
      dxz     :    -0.000013
      dyz     :    -0.000011
      dx2y2   :    -0.000028
      dxy     :     0.000037
  1 O s       :     0.008884  s :     0.008884
      pz      :     0.009297  p :    -0.002870
      px      :    -0.005638
      py      :    -0.006528
      dz2     :     0.000020  d :     0.000274
      dxz     :    -0.000011
      dyz     :     0.000004
      dx2y2   :     0.000061
      dxy     :     0.000199
  2 C s       :    -0.002081  s :    -0.002081
      pz      :    -0.000751  p :    -0.007131
      px      :    -0.001913
      py      :    -0.004466
      dz2     :    -0.000058  d :     0.010258
      dxz     :     0.007707
      dyz     :     0.000438
      dx2y2   :     0.000184
      dxy     :     0.001986
  3 C s       :     0.019078  s :     0.019078
      pz      :     0.387078  p :     0.497967
      px      :     0.011479
      py      :     0.099410
      dz2     :    -0.001082  d :    -0.005328
      dxz     :    -0.001382
      dyz     :    -0.001304
      dx2y2   :    -0.000537
      dxy     :    -0.001022
  4 C s       :    -0.009825  s :    -0.009825
      pz      :    -0.126358  p :    -0.172149
      px      :    -0.006562
      py      :    -0.039229
      dz2     :     0.007606  d :     0.021942
      dxz     :     0.003045
      dyz     :     0.006967
      dx2y2   :     0.002991
      dxy     :     0.001333
  5 C s       :     0.020376  s :     0.020376
      pz      :     0.421804  p :     0.537433
      px      :     0.011593
      py      :     0.104036
      dz2     :    -0.001770  d :    -0.004974
      dxz     :     0.000039
      dyz     :    -0.001771
      dx2y2   :    -0.000948
      dxy     :    -0.000524
  6 C s       :    -0.003355  s :    -0.003355
      pz      :    -0.003464  p :    -0.017556
      px      :    -0.011532
      py      :    -0.002559
      dz2     :     0.001763  d :     0.011642
      dxz     :     0.006970
      dyz     :     0.000743
      dx2y2   :     0.000487
      dxy     :     0.001679
  7 H s       :    -0.000739  s :    -0.000739
      pz      :     0.000250  p :     0.001244
      px      :     0.000778
      py      :     0.000217
  8 H s       :     0.020004  s :     0.020004
      pz      :    -0.000120  p :    -0.000311
      px      :    -0.000189
      py      :    -0.000001
  9 H s       :    -0.016275  s :    -0.016275
      pz      :     0.010396  p :     0.014803
      px      :     0.000223
      py      :     0.004184
 10 H s       :     0.005038  s :     0.005038
      pz      :    -0.003009  p :    -0.004653
      px      :    -0.000663
      py      :    -0.000980
 11 H s       :    -0.017074  s :    -0.017074
      pz      :     0.011069  p :     0.015732
      px      :     0.001091
      py      :     0.003572
 12 H s       :     0.027270  s :     0.027270
      pz      :    -0.000507  p :    -0.000865
      px      :    -0.000278
      py      :    -0.000080
 13 H s       :     0.023238  s :     0.023238
      pz      :    -0.000168  p :    -0.000796
      px      :    -0.000276
      py      :    -0.000351


                      *****************************
                      * MAYER POPULATION ANALYSIS *
                      *****************************

  NA   - Mulliken gross atomic population
  ZA   - Total nuclear charge
  QA   - Mulliken gross atomic charge
  VA   - Mayer's total valence
  BVA  - Mayer's bonded valence
  FA   - Mayer's free valence

  ATOM       NA         ZA         QA         VA         BVA        FA
  0 O      8.2053     8.0000    -0.2053     2.0063     2.0050     0.0013
  1 O      8.2448     8.0000    -0.2448     1.9572     1.9567     0.0005
  2 C      5.8979     6.0000     0.1021     4.0039     4.0021     0.0018
  3 C      6.0501     6.0000    -0.0501     3.8605     3.5727     0.2877
  4 C      5.9974     6.0000     0.0026     3.8657     3.8248     0.0410
  5 C      6.1220     6.0000    -0.1220     3.9271     3.5987     0.3284
  6 C      5.9177     6.0000     0.0823     3.8600     3.8580     0.0019
  7 H      0.8067     1.0000     0.1933     0.9982     0.9982     0.0000
  8 H      0.9590     1.0000     0.0410     0.9802     0.9796     0.0006
  9 H      0.9567     1.0000     0.0433     0.9940     0.9928     0.0013
 10 H      0.9697     1.0000     0.0303     0.9854     0.9853     0.0001
 11 H      0.9698     1.0000     0.0302     0.9875     0.9859     0.0015
 12 H      0.9447     1.0000     0.0553     0.9780     0.9769     0.0010
 13 H      0.9582     1.0000     0.0418     1.0124     1.0116     0.0008

  Mayer bond orders larger than 0.100000
B(  0-O ,  1-O ) :   0.9033 B(  0-O ,  7-H ) :   0.9710 B(  1-O ,  2-C ) :   0.9666 
B(  2-C ,  3-C ) :   1.0128 B(  2-C ,  6-C ) :   1.0403 B(  2-C ,  8-H ) :   0.9060 
B(  3-C ,  4-C ) :   1.3928 B(  3-C ,  5-C ) :   0.1217 B(  3-C ,  9-H ) :   0.9933 
B(  4-C ,  5-C ) :   1.4051 B(  4-C , 10-H ) :   0.9971 B(  5-C ,  6-C ) :   1.0346 
B(  5-C , 11-H ) :   0.9838 B(  6-C , 12-H ) :   0.9184 B(  6-C , 13-H ) :   0.9139 



------------------
HIRSHFELD ANALYSIS
------------------

Total integrated alpha density =     27.000010985
Total integrated beta density  =     26.000006718

  ATOM     CHARGE      SPIN    
   0 O   -0.181817    0.030351
   1 O   -0.114822    0.011840
   2 C    0.054379    0.028607
   3 C   -0.026280    0.400811
   4 C   -0.042421   -0.051293
   5 C   -0.019426    0.434163
   6 C   -0.053276    0.029303
   7 H    0.165028    0.001455
   8 H    0.027412    0.020130
   9 H    0.044633    0.025746
  10 H    0.046157   -0.005339
  11 H    0.030602    0.027512
  12 H    0.036169    0.025229
  13 H    0.033645    0.021490

  TOTAL  -0.000018    1.000004

-------
TIMINGS
-------

Total SCF time: 0 days 0 hours 0 min 8 sec 

Total time                  ....       8.321 sec
Sum of individual times     ....       8.179 sec  ( 98.3%)

Fock matrix formation       ....       7.316 sec  ( 87.9%)
  Split-RI-J                ....       0.672 sec  (  9.2% of F)
  Chain of spheres X        ....       4.805 sec  ( 65.7% of F)
  XC integration            ....       1.767 sec  ( 24.2% of F)
    Basis function eval.    ....       0.472 sec  ( 26.7% of XC)
    Density eval.           ....       0.449 sec  ( 25.4% of XC)
    XC-Functional eval.     ....       0.165 sec  (  9.4% of XC)
    XC-Potential eval.      ....       0.537 sec  ( 30.4% of XC)
Diagonalization             ....       0.131 sec  (  1.6%)
Density matrix formation    ....       0.007 sec  (  0.1%)
Population analysis         ....       0.132 sec  (  1.6%)
Initial guess               ....       0.037 sec  (  0.4%)
Orbital Transformation      ....       0.000 sec  (  0.0%)
Orbital Orthonormalization  ....       0.000 sec  (  0.0%)
DIIS solution               ....       0.090 sec  (  1.1%)
Grid generation             ....       0.467 sec  (  5.6%)

Maximum memory used throughout the entire SCF-calculation: 50.7 MB


-------------------------------------------------------------------------------
                          DFT DISPERSION CORRECTION                            
                                                                               
                              DFTD3 V3.1  Rev 1                                
                          USING Becke-Johnson damping                          
-------------------------------------------------------------------------------
The PBE0 functional is recognized
Active option DFTDOPT                   ...         4   

molecular C6(AA) [au] = 1778.355915 


            DFT-D V3
 parameters
 s6 scaling factor         :     1.0000 
 a1 scaling factor         :     0.4145 
 s8 scaling factor         :     1.2177 
 a2 scaling factor         :     4.8593 
 ad hoc parameters k1-k3   :    16.0000     1.3333    -4.0000 

 Edisp/kcal,au: -6.302495096991  -0.010043664176 
 E6   /kcal   :  -4.004562751 
 E8   /kcal   :  -2.297932346 
 % E8         :  36.460676454 

-------------------------   ----------------
Dispersion correction           -0.010043664
-------------------------   ----------------


-------------------------   --------------------
FINAL SINGLE POINT ENERGY      -344.375152590555
-------------------------   --------------------



           ************************************************************
           *        Program running with 8 parallel MPI-processes     *
           *              working on a common directory               *
           ************************************************************
------------------------------------------------------------------------------
                         ORCA SCF GRADIENT CALCULATION
------------------------------------------------------------------------------

 ... reading COSX grid (gridx3)
Gradient of the Kohn-Sham DFT energy:
Kohn-Sham wavefunction type      ... UKS
Hartree-Fock exchange scaling    ...    0.250
Number of operators              ...    2
Number of atoms                  ...   14
Basis set dimensions             ...  133
Integral neglect threshold       ... 2.5e-11
Integral primitive cutoff        ... 2.5e-12
SHARK Integral package           ... ON

Nuc. rep. gradient       (SHARK) ... done (  0.0 sec)
HCore & Overlap gradient (SHARK) ... done (  0.0 sec)
RI-J gradient            (SHARK) ... done (  0.1 sec)
COSX-gradient                    ... done (  0.9 sec)
Exchange-correlation gradient    ... done
Dispersion correction            ... done

------------------
CARTESIAN GRADIENT
------------------

   1   O   :   -0.045745757   -0.028985656   -0.005300381
   2   O   :    0.069421557    0.025584069   -0.029028815
   3   C   :    0.022231284   -0.006474914    0.021362753
   4   C   :    0.007549526   -0.012072535   -0.005835815
   5   C   :   -0.014639440    0.005927522    0.000316814
   6   C   :   -0.032016219    0.016591274    0.009697271
   7   C   :    0.000643455    0.004002182    0.011032379
   8   H   :   -0.006850752   -0.001614314   -0.004726769
   9   H   :    0.001497049   -0.002750779    0.000386703
  10   H   :    0.001476768    0.000548251    0.000801984
  11   H   :    0.000326642    0.001137609    0.000751157
  12   H   :   -0.001994892    0.000107170   -0.000031291
  13   H   :   -0.001999673   -0.000057386    0.000973014
  14   H   :    0.000161001   -0.002010176   -0.000364487

Difference to translation invariance:
           :    0.0000605488   -0.0000676830    0.0000345179

Difference to rotation invariance:
           :    0.0002638757   -0.0006159748    0.0002843747

Norm of the cartesian gradient     ...    0.1113055887
RMS gradient                       ...    0.0171748252
MAX gradient                       ...    0.0694215566

-------
TIMINGS
-------

Total SCF gradient time            ...        1.708 sec

One electron gradient       ....       0.017 sec  (  1.0%)
RI-J Coulomb gradient       ....       0.123 sec  (  7.2%)
COSX gradient               ....       0.878 sec  ( 51.4%)
XC gradient                 ....       0.488 sec  ( 28.6%)

Maximum memory used throughout the entire SCFGRAD-calculation: 38.8 MB
------------------------------------------------------------------------------
                         ORCA GEOMETRY RELAXATION STEP
------------------------------------------------------------------------------

Reading the OPT-File                    .... done
Getting information on internals        .... done
Copying old internal coords+grads       .... done
Making the new internal coordinates     .... (new redundants).... done
Validating the new internal coordinates .... (new redundants).... done
Calculating the B-matrix                .... done
Calculating the G,G- and P matrices     .... done
Transforming gradient to internals      .... done
Projecting the internal gradient        .... done
Number of atoms                         ....  14
Number of internal coordinates          ....  71
Current Energy                          ....  -344.375152591 Eh
Current gradient norm                   ....     0.111305589 Eh/bohr
Maximum allowed component of the step   ....  0.300
Current trust radius                    ....  0.300
Evaluating the initial hessian          ....  (Almloef) done
Projecting the Hessian                  .... done
Forming the augmented Hessian           .... done
Diagonalizing the augmented Hessian     .... done
Last element of RFO vector              ....  0.942489920
Lowest eigenvalues of augmented Hessian:
[...]
      px      :     0.958964
      py      :     0.922613
      dz2     :     0.004690  d :     0.034365
      dxz     :     0.005007
      dyz     :     0.004887
      dx2y2   :     0.009453
      dxy     :     0.010328
  6 C s       :     2.965101  s :     2.965101
      pz      :     0.985157  p :     2.944106
      px      :     0.934309
      py      :     1.024639
      dz2     :     0.008319  d :     0.033607
      dxz     :     0.005408
      dyz     :     0.004379
      dx2y2   :     0.007847
      dxy     :     0.007655
  7 H s       :     0.741895  s :     0.741895
      pz      :     0.034342  p :     0.066761
      px      :     0.013176
      py      :     0.019244
  8 H s       :     0.937015  s :     0.937015
      pz      :     0.005887  p :     0.020594
      px      :     0.008637
      py      :     0.006070
  9 H s       :     0.931777  s :     0.931777
      pz      :     0.007240  p :     0.023959
      px      :     0.003105
      py      :     0.013615
 10 H s       :     0.945740  s :     0.945740
      pz      :     0.005015  p :     0.023396
      px      :     0.013778
      py      :     0.004604
 11 H s       :     0.938968  s :     0.938968
      pz      :     0.005397  p :     0.023695
      px      :     0.008641
      py      :     0.009657
 12 H s       :     0.918724  s :     0.918724
      pz      :     0.014273  p :     0.023227
      px      :     0.004635
      py      :     0.004320
 13 H s       :     0.915538  s :     0.915538
      pz      :     0.005955  p :     0.023563
      px      :     0.006574
      py      :     0.011035

SPIN
  0 O s       :     0.000154  s :     0.000154
      pz      :     0.004201  p :     0.051368
      px      :     0.029406
      py      :     0.017761
      dz2     :     0.000015  d :    -0.000004
      dxz     :    -0.000001
      dyz     :    -0.000006
      dx2y2   :    -0.000010
      dxy     :    -0.000002
  1 O s       :     0.002345  s :     0.002345
      pz      :     0.016417  p :    -0.007474
      px      :    -0.012749
      py      :    -0.011142
      dz2     :     0.000136  d :     0.000323
      dxz     :     0.000003
      dyz     :     0.000020
      dx2y2   :     0.000032
      dxy     :     0.000132
  2 C s       :    -0.014978  s :    -0.014978
      pz      :    -0.007559  p :    -0.033516
      px      :    -0.013999
      py      :    -0.011957
      dz2     :    -0.000190  d :     0.004075
      dxz     :     0.003104
      dyz     :     0.000642
      dx2y2   :     0.000049
      dxy     :     0.000469
  3 C s       :     0.095191  s :     0.095191
      pz      :     0.459846  p :     0.593023
      px      :     0.026592
      py      :     0.106585
      dz2     :    -0.000944  d :    -0.002736
      dxz     :    -0.000456
      dyz     :    -0.001003
      dx2y2   :    -0.000102
      dxy     :    -0.000230
  4 C s       :    -0.055276  s :    -0.055276
      pz      :    -0.170749  p :    -0.268314
      px      :    -0.028409
      py      :    -0.069156
      dz2     :     0.002566  d :     0.008459
      dxz     :     0.001392
      dyz     :     0.003228
      dx2y2   :     0.001117
      dxy     :     0.000156
  5 C s       :     0.091495  s :     0.091495
      pz      :     0.447345  p :     0.600311
      px      :     0.031356
      py      :     0.121609
      dz2     :    -0.001082  d :    -0.002399
      dxz     :     0.000072
      dyz     :    -0.001123
      dx2y2   :    -0.000250
      dxy     :    -0.000016
  6 C s       :    -0.019053  s :    -0.019053
      pz      :    -0.011318  p :    -0.045525
      px      :    -0.027710
      py      :    -0.006497
      dz2     :     0.001060  d :     0.003546
      dxz     :     0.001965
      dyz     :     0.000005
      dx2y2   :    -0.000029
      dxy     :     0.000545
  7 H s       :    -0.001837  s :    -0.001837
      pz      :     0.000067  p :     0.000511
      px      :     0.000290
      py      :     0.000154
  8 H s       :     0.013984  s :     0.013984
      pz      :     0.000032  p :    -0.000018
      px      :    -0.000178
      py      :     0.000127
  9 H s       :    -0.036684  s :    -0.036684
      pz      :     0.002762  p :     0.003492
      px      :    -0.000078
      py      :     0.000808
 10 H s       :     0.011939  s :     0.011939
      pz      :    -0.000803  p :    -0.001071
      px      :    -0.000083
      py      :    -0.000184
 11 H s       :    -0.037815  s :    -0.037815
      pz      :     0.002776  p :     0.003635
      px      :     0.000129
      py      :     0.000730
 12 H s       :     0.029106  s :     0.029106
      pz      :    -0.000155  p :    -0.000174
      px      :    -0.000051
      py      :     0.000032
 13 H s       :     0.014039  s :     0.014039
      pz      :    -0.000041  p :    -0.000123
      px      :    -0.000113
      py      :     0.000031


                     *******************************
                     * LOEWDIN POPULATION ANALYSIS *
                     *******************************

-------------------------------------------
LOEWDIN ATOMIC CHARGES AND SPIN POPULATIONS
-------------------------------------------
   0 O :   -0.094519    0.045763
   1 O :   -0.090036    0.006369
   2 C :    0.038714    0.001394
   3 C :   -0.023220    0.534645
   4 C :   -0.040716   -0.169442
   5 C :   -0.004282    0.545318
   6 C :   -0.055303   -0.009429
   7 H :    0.072785    0.000503
   8 H :    0.020150    0.012030
   9 H :    0.029282   -0.001466
  10 H :    0.034766    0.000473
  11 H :    0.026100   -0.001596
  12 H :    0.043278    0.023749
  13 H :    0.043000    0.011690

----------------------------------------------------
LOEWDIN REDUCED ORBITAL CHARGES AND SPIN POPULATIONS
----------------------------------------------------
CHARGE
  0 O s       :     3.617695  s :     3.617695
      pz      :     1.482416  p :     4.457697
      px      :     1.318350
      py      :     1.656932
      dz2     :     0.008359  d :     0.019126
      dxz     :     0.002591
      dyz     :     0.003044
      dx2y2   :     0.002081
      dxy     :     0.003051
  1 O s       :     3.634670  s :     3.634670
      pz      :     1.508821  p :     4.429380
      px      :     1.256000
      py      :     1.664558
      dz2     :     0.007777  d :     0.025986
      dxz     :     0.006154
      dyz     :     0.004072
      dx2y2   :     0.003087
      dxy     :     0.004896
  2 C s       :     2.856035  s :     2.856035
      pz      :     0.904668  p :     2.939863
      px      :     1.010253
      py      :     1.024942
      dz2     :     0.032611  d :     0.165388
      dxz     :     0.046060
      dyz     :     0.041699
      dx2y2   :     0.014347
      dxy     :     0.030671
  3 C s       :     2.898768  s :     2.898768
      pz      :     0.985020  p :     3.044124
      px      :     1.031272
      py      :     1.027832
      dz2     :     0.005814  d :     0.080328
      dxz     :     0.011897
      dyz     :     0.009029
      dx2y2   :     0.024178
      dxy     :     0.029410
  4 C s       :     2.871293  s :     2.871293
      pz      :     0.977224  p :     3.071494
      px      :     1.048662
      py      :     1.045608
      dz2     :     0.010354  d :     0.097929
      dxz     :     0.012673
      dyz     :     0.015383
      dx2y2   :     0.030219
      dxy     :     0.029299
  5 C s       :     2.893663  s :     2.893663
      pz      :     0.959816  p :     3.026845
      px      :     1.030873
      py      :     1.036156
      dz2     :     0.009227  d :     0.083774
      dxz     :     0.010849
      dyz     :     0.011495
      dx2y2   :     0.026691
      dxy     :     0.025512
  6 C s       :     2.846812  s :     2.846812
      pz      :     1.050801  p :     3.121693
      px      :     1.025029
      py      :     1.045862
      dz2     :     0.022296  d :     0.086798
      dxz     :     0.012704
      dyz     :     0.011157
      dx2y2   :     0.021878
      dxy     :     0.018762
  7 H s       :     0.747096  s :     0.747096
      pz      :     0.093811  p :     0.180119
      px      :     0.035971
      py      :     0.050337
  8 H s       :     0.913402  s :     0.913402
      pz      :     0.019649  p :     0.066448
      px      :     0.026474
      py      :     0.020326
  9 H s       :     0.896814  s :     0.896814
      pz      :     0.022805  p :     0.073904
      px      :     0.011611
      py      :     0.039487
 10 H s       :     0.897425  s :     0.897425
      pz      :     0.014971  p :     0.067810
      px      :     0.038484
      py      :     0.014355
 11 H s       :     0.901295  s :     0.901295
      pz      :     0.017568  p :     0.072604
      px      :     0.027092
      py      :     0.027945
 12 H s       :     0.889235  s :     0.889235
      pz      :     0.040433  p :     0.067486
      px      :     0.013538
      py      :     0.013515
 13 H s       :     0.887757  s :     0.887757
      pz      :     0.016183  p :     0.069244
      px      :     0.019261
      py      :     0.033800

SPIN
  0 O s       :     0.000020  s :     0.000020
      pz      :     0.003453  p :     0.045770
      px      :     0.026173
      py      :     0.016144
      dz2     :     0.000010  d :    -0.000027
      dxz     :    -0.000019
      dyz     :    -0.000015
      dx2y2   :    -0.000016
      dxy     :     0.000013
  1 O s       :     0.010666  s :     0.010666
      pz      :     0.015431  p :    -0.004801
      px      :    -0.010331
      py      :    -0.009901
      dz2     :     0.000064  d :     0.000504
      dxz     :    -0.000013
      dyz     :     0.000006
      dx2y2   :     0.000088
      dxy     :     0.000359
  2 C s       :    -0.001592  s :    -0.001592
      pz      :     0.000333  p :    -0.007582
      px      :    -0.003407
      py      :    -0.004507
      dz2     :    -0.000162  d :     0.010568
      dxz     :     0.007575
      dyz     :     0.001414
      dx2y2   :     0.000206
      dxy     :     0.001535
  3 C s       :     0.020437  s :     0.020437
      pz      :     0.416885  p :     0.519522
      px      :     0.013989
      py      :     0.088648
      dz2     :    -0.001021  d :    -0.005314
      dxz     :    -0.001334
      dyz     :    -0.001245
      dx2y2   :    -0.000724
      dxy     :    -0.000989
  4 C s       :    -0.010334  s :    -0.010334
      pz      :    -0.131478  p :    -0.179976
      px      :    -0.009366
      py      :    -0.039132
      dz2     :     0.005713  d :     0.020867
      dxz     :     0.003600
      dyz     :     0.007466
      dx2y2   :     0.003017
      dxy     :     0.001072
  5 C s       :     0.020534  s :     0.020534
      pz      :     0.408037  p :     0.529819
      px      :     0.020228
      py      :     0.101553
      dz2     :    -0.001727  d :    -0.005035
      dxz     :     0.000003
      dyz     :    -0.001765
      dx2y2   :    -0.000982
      dxy     :    -0.000564
  6 C s       :    -0.003095  s :    -0.003095
      pz      :    -0.002390  p :    -0.015590
      px      :    -0.011149
      py      :    -0.002050
      dz2     :     0.003026  d :     0.009255
      dxz     :     0.004480
      dyz     :     0.000020
      dx2y2   :     0.000362
      dxy     :     0.001367
  7 H s       :    -0.001240  s :    -0.001240
      pz      :     0.000282  p :     0.001743
      px      :     0.000921
      py      :     0.000540
  8 H s       :     0.012375  s :     0.012375
      pz      :    -0.000085  p :    -0.000345
      px      :    -0.000282
      py      :     0.000022
  9 H s       :    -0.016552  s :    -0.016552
      pz      :     0.010756  p :     0.015085
      px      :     0.000307
      py      :     0.004022
 10 H s       :     0.005307  s :     0.005307
      pz      :    -0.003141  p :    -0.004834
      px      :    -0.000733
      py      :    -0.000960
 11 H s       :    -0.016967  s :    -0.016967
      pz      :     0.010484  p :     0.015371
      px      :     0.001330
      py      :     0.003557
 12 H s       :     0.024444  s :     0.024444
      pz      :    -0.000510  p :    -0.000696
      px      :    -0.000173
      py      :    -0.000013
 13 H s       :     0.012261  s :     0.012261
      pz      :    -0.000139  p :    -0.000571
      px      :    -0.000266
      py      :    -0.000166


                      *****************************
                      * MAYER POPULATION ANALYSIS *
                      *****************************

  NA   - Mulliken gross atomic population
  ZA   - Total nuclear charge
  QA   - Mulliken gross atomic charge
  VA   - Mayer's total valence
  BVA  - Mayer's bonded valence
  FA   - Mayer's free valence

  ATOM       NA         ZA         QA         VA         BVA        FA
  0 O      8.2011     8.0000    -0.2011     2.0044     2.0017     0.0026
  1 O      8.2667     8.0000    -0.2667     1.9355     1.9343     0.0012
  2 C      5.8964     6.0000     0.1036     3.9899     3.9881     0.0018
  3 C      6.0589     6.0000    -0.0589     3.8581     3.5477     0.3104
  4 C      5.9957     6.0000     0.0043     3.8632     3.8191     0.0441
  5 C      6.1035     6.0000    -0.1035     3.9084     3.5930     0.3153
  6 C      5.9428     6.0000     0.0572     3.8397     3.8380     0.0017
  7 H      0.8087     1.0000     0.1913     0.9997     0.9997     0.0000
  8 H      0.9576     1.0000     0.0424     0.9848     0.9845     0.0002
  9 H      0.9557     1.0000     0.0443     0.9928     0.9915     0.0014
 10 H      0.9691     1.0000     0.0309     0.9853     0.9852     0.0001
 11 H      0.9627     1.0000     0.0373     0.9892     0.9877     0.0015
 12 H      0.9420     1.0000     0.0580     0.9761     0.9753     0.0009
 13 H      0.9391     1.0000     0.0609     1.0115     1.0113     0.0002

  Mayer bond orders larger than 0.100000
B(  0-O ,  1-O ) :   0.9089 B(  0-O ,  7-H ) :   0.9717 B(  1-O ,  2-C ) :   0.9458 
B(  2-C ,  3-C ) :   1.0133 B(  2-C ,  6-C ) :   1.0265 B(  2-C ,  8-H ) :   0.9301 
B(  3-C ,  4-C ) :   1.3754 B(  3-C ,  5-C ) :   0.1161 B(  3-C ,  9-H ) :   0.9877 
B(  4-C ,  5-C ) :   1.4233 B(  4-C , 10-H ) :   0.9948 B(  5-C ,  6-C ) :   1.0210 
B(  5-C , 11-H ) :   0.9846 B(  6-C , 12-H ) :   0.9224 B(  6-C , 13-H ) :   0.9220 



------------------
HIRSHFELD ANALYSIS
------------------

Total integrated alpha density =     26.999989470
Total integrated beta density  =     25.999994973

  ATOM     CHARGE      SPIN    
   0 O   -0.184256    0.044798
   1 O   -0.121475    0.012636
   2 C    0.057606    0.027794
   3 C   -0.027241    0.419560
   4 C   -0.044014   -0.059631
   5 C   -0.015624    0.429532
   6 C   -0.049962    0.026617
   7 H    0.165950    0.001477
   8 H    0.029293    0.013376
   9 H    0.040548    0.026864
  10 H    0.043914   -0.005715
  11 H    0.037294    0.027200
  12 H    0.034361    0.023387
  13 H    0.033624    0.012099

  TOTAL   0.000016    0.999994

-------
TIMINGS
-------

Total SCF time: 0 days 0 hours 0 min 6 sec 

Total time                  ....       6.122 sec
Sum of individual times     ....       5.989 sec  ( 97.8%)

Fock matrix formation       ....       5.258 sec  ( 85.9%)
  Split-RI-J                ....       0.483 sec  (  9.2% of F)
  Chain of spheres X        ....       3.643 sec  ( 69.3% of F)
  XC integration            ....       1.085 sec  ( 20.6% of F)
    Basis function eval.    ....       0.323 sec  ( 29.8% of XC)
    Density eval.           ....       0.283 sec  ( 26.1% of XC)
    XC-Functional eval.     ....       0.115 sec  ( 10.6% of XC)
    XC-Potential eval.      ....       0.241 sec  ( 22.2% of XC)
Diagonalization             ....       0.092 sec  (  1.5%)
Density matrix formation    ....       0.005 sec  (  0.1%)
Population analysis         ....       0.139 sec  (  2.3%)
Initial guess               ....       0.008 sec  (  0.1%)
Orbital Transformation      ....       0.000 sec  (  0.0%)
Orbital Orthonormalization  ....       0.004 sec  (  0.1%)
DIIS solution               ....       0.059 sec  (  1.0%)
Grid generation             ....       0.428 sec  (  7.0%)

Maximum memory used throughout the entire SCF-calculation: 50.7 MB


-------------------------------------------------------------------------------
                          DFT DISPERSION CORRECTION                            
                                                                               
                              DFTD3 V3.1  Rev 1                                
                          USING Becke-Johnson damping                          
-------------------------------------------------------------------------------
The PBE0 functional is recognized
Active option DFTDOPT                   ...         4   

molecular C6(AA) [au] = 1784.765637 


            DFT-D V3
 parameters
 s6 scaling factor         :     1.0000 
 a1 scaling factor         :     0.4145 
 s8 scaling factor         :     1.2177 
 a2 scaling factor         :     4.8593 
 ad hoc parameters k1-k3   :    16.0000     1.3333    -4.0000 

 Edisp/kcal,au: -6.246872143295  -0.009955023366 
 E6   /kcal   :  -3.967013340 
 E8   /kcal   :  -2.279858803 
 % E8         :  36.496005537 

-------------------------   ----------------
Dispersion correction           -0.009955023
-------------------------   ----------------


-------------------------   --------------------
FINAL SINGLE POINT ENERGY      -344.383340734620
-------------------------   --------------------

                                *** OPTIMIZATION RUN DONE ***

                            ***************************************
                            *     ORCA property calculations      *
                            ***************************************

                                    ---------------------
                                    Active property flags
                                    ---------------------
   (+) Dipole Moment


------------------------------------------------------------------------------
                       ORCA ELECTRIC PROPERTIES CALCULATION
------------------------------------------------------------------------------

Dipole Moment Calculation                       ... on
Quadrupole Moment Calculation                   ... off
Polarizability Calculation                      ... off
GBWName                                         ... path_opt0_orca.gbw
Electron density                                ... path_opt0_orca.scfp
The origin for moment calculation is the CENTER OF MASS  = (-0.409147,  0.055383  0.347997)

-------------
DIPOLE MOMENT
-------------
                                X             Y             Z
Electronic contribution:     -1.61990       0.52184       2.05708
Nuclear contribution   :      1.94562      -0.63441      -2.08597
                        -----------------------------------------
Total Dipole Moment    :      0.32571      -0.11257      -0.02890
                        -----------------------------------------
Magnitude (a.u.)       :      0.34583
Magnitude (Debye)      :      0.87902



--------------------
Rotational spectrum 
--------------------
 
Rotational constants in cm-1:     0.195976     0.067148     0.056034 
Rotational constants in MHz :  5875.226828  2013.055685  1679.842879 

 Dipole components along the rotational axes: 
x,y,z [a.u.] :    -0.297094    -0.110147     0.138557 
x,y,z [Debye]:    -0.755153    -0.279972     0.352183 

 

Timings for individual modules:

Sum of individual times         ...       75.160 sec (=   1.253 min)
GTO integral calculation        ...        3.320 sec (=   0.055 min)   4.4 %
SCF iterations                  ...       57.476 sec (=   0.958 min)  76.5 %
SCF Gradient evaluation         ...       14.156 sec (=   0.236 min)  18.8 %
Geometry relaxation             ...        0.207 sec (=   0.003 min)   0.3 %
                             ****ORCA TERMINATED NORMALLY****
TOTAL RUN TIME: 0 days 0 hours 1 minutes 17 seconds 693 msec
