
                                 *****************
                                 * O   R   C   A *
                                 *****************

                                            #,                                       
                                            ###                                      
                                            ####                                     
                                            #####                                    
                                            ######                                   
                                           ########,                                 
                                     ,,################,,,,,                         
                               ,,#################################,,                 
                          ,,##########################################,,             
                       ,#########################################, ''#####,          
                    ,#############################################,,   '####,        
                  ,##################################################,,,,####,       
                ,###########''''           ''''###############################       
              ,#####''   ,,,,##########,,,,          '''####'''          '####       
            ,##' ,,,,###########################,,,                        '##       
           ' ,,###''''                  '''############,,,                           
         ,,##''                                '''############,,,,        ,,,,,,###''
      ,#''                                            '''#######################'''  
     '                                                          ''''####''''         
             ,#######,   #######,   ,#######,      ##                                
            ,#'     '#,  ##    ##  ,#'     '#,    #''#        ######   ,####,        
            ##       ##  ##   ,#'  ##            #'  '#       #        #'  '#        
            ##       ##  #######   ##           ,######,      #####,   #    #        
            '#,     ,#'  ##    ##  '#,     ,#' ,#      #,         ##   #,  ,#        
             '#######'   ##     ##  '#######'  #'      '#     #####' # '####'        



                  #######################################################
                  #                        -***-                        #
                  #          Department of theory and spectroscopy      #
                  #    Directorship and core code : Frank Neese         #
                  #        Max Planck Institute fuer Kohlenforschung    #
                  #                Kaiser Wilhelm Platz 1               #
                  #                 D-45470 Muelheim/Ruhr               #
                  #                      Germany                        #
                  #                                                     #
                  #                  All rights reserved                #
                  #                        -***-                        #
                  #######################################################


                         Program Version 5.0.4 -  RELEASE  -


 With contributions from (in alphabetic order):
   Daniel Aravena         : Magnetic Suceptibility
   Michael Atanasov       : Ab Initio Ligand Field Theory (pilot matlab implementation)
   Alexander A. Auer      : GIAO ZORA, VPT2 properties, NMR spectrum
   Ute Becker             : Parallelization
   Giovanni Bistoni       : ED, misc. LED, open-shell LED, HFLD
   Martin Brehm           : Molecular dynamics
   Dmytro Bykov           : SCF Hessian
   Vijay G. Chilkuri      : MRCI spin determinant printing, contributions to CSF-ICE
   Dipayan Datta          : RHF DLPNO-CCSD density
   Achintya Kumar Dutta   : EOM-CC, STEOM-CC
   Dmitry Ganyushin       : Spin-Orbit,Spin-Spin,Magnetic field MRCI
   Miquel Garcia          : C-PCM and meta-GGA Hessian, CC/C-PCM, Gaussian charge scheme
   Yang Guo               : DLPNO-NEVPT2, F12-NEVPT2, CIM, IAO-localization
   Andreas Hansen         : Spin unrestricted coupled pair/coupled cluster methods
   Benjamin Helmich-Paris : MC-RPA, TRAH-SCF, COSX integrals
   Lee Huntington         : MR-EOM, pCC
   Robert Izsak           : Overlap fitted RIJCOSX, COSX-SCS-MP3, EOM
   Marcus Kettner         : VPT2
   Christian Kollmar      : KDIIS, OOCD, Brueckner-CCSD(T), CCSD density, CASPT2, CASPT2-K
   Simone Kossmann        : Meta GGA functionals, TD-DFT gradient, OOMP2, MP2 Hessian
   Martin Krupicka        : Initial AUTO-CI
   Lucas Lang             : DCDCAS
   Marvin Lechner         : AUTO-CI (C++ implementation), FIC-MRCC
   Dagmar Lenk            : GEPOL surface, SMD
   Dimitrios Liakos       : Extrapolation schemes; Compound Job, initial MDCI parallelization
   Dimitrios Manganas     : Further ROCIS development; embedding schemes
   Dimitrios Pantazis     : SARC Basis sets
   Anastasios Papadopoulos: AUTO-CI, single reference methods and gradients
   Taras Petrenko         : DFT Hessian,TD-DFT gradient, ASA, ECA, R-Raman, ABS, FL, XAS/XES, NRVS
   Peter Pinski           : DLPNO-MP2, DLPNO-MP2 Gradient
   Christoph Reimann      : Effective Core Potentials
   Marius Retegan         : Local ZFS, SOC
   Christoph Riplinger    : Optimizer, TS searches, QM/MM, DLPNO-CCSD(T), (RO)-DLPNO pert. Triples
   Tobias Risthaus        : Range-separated hybrids, TD-DFT gradient, RPA, STAB
   Michael Roemelt        : Original ROCIS implementation
   Masaaki Saitow         : Open-shell DLPNO-CCSD energy and density
   Barbara Sandhoefer     : DKH picture change effects
   Avijit Sen             : IP-ROCIS
   Kantharuban Sivalingam : CASSCF convergence, NEVPT2, FIC-MRCI
   Bernardo de Souza      : ESD, SOC TD-DFT
   Georgi Stoychev        : AutoAux, RI-MP2 NMR, DLPNO-MP2 response
   Willem Van den Heuvel  : Paramagnetic NMR
   Boris Wezisla          : Elementary symmetry handling
   Frank Wennmohs         : Technical directorship


 We gratefully acknowledge several colleagues who have allowed us to
 interface, adapt or use parts of their codes:
   Stefan Grimme, W. Hujo, H. Kruse, P. Pracht,  : VdW corrections, initial TS optimization,
                  C. Bannwarth, S. Ehlert          DFT functionals, gCP, sTDA/sTD-DF
   Ed Valeev, F. Pavosevic, A. Kumar             : LibInt (2-el integral package), F12 methods
   Garnet Chan, S. Sharma, J. Yang, R. Olivares  : DMRG
   Ulf Ekstrom                                   : XCFun DFT Library
   Mihaly Kallay                                 : mrcc  (arbitrary order and MRCC methods)
   Jiri Pittner, Ondrej Demel                    : Mk-CCSD
   Frank Weinhold                                : gennbo (NPA and NBO analysis)
   Christopher J. Cramer and Donald G. Truhlar   : smd solvation model
   Lars Goerigk                                  : TD-DFT with DH, B97 family of functionals
   V. Asgeirsson, H. Jonsson                     : NEB implementation
   FAccTs GmbH                                   : IRC, NEB, NEB-TS, DLPNO-Multilevel, CI-OPT
                                                   MM, QMMM, 2- and 3-layer-ONIOM, Crystal-QMMM,
                                                   LR-CPCM, SF, NACMEs, symmetry and pop. for TD-DFT,
                                                   nearIR, NL-DFT gradient (VV10), updates on ESD,
                                                   ML-optimized integration grids
   S Lehtola, MJT Oliveira, MAL Marques          : LibXC Library
   Liviu Ungur et al                             : ANISO software


 Your calculation uses the libint2 library for the computation of 2-el integrals
 For citations please refer to: http://libint.valeyev.net

 Your ORCA version has been built with support for libXC version: 5.1.0
 For citations please refer to: https://tddft.org/programs/libxc/

 This ORCA versions uses:
   CBLAS   interface :  Fast vector & matrix operations
   LAPACKE interface :  Fast linear algebra routines
   SCALAPACK package :  Parallel linear algebra routines
   Shared memory     :  Shared parallel matrices
   BLAS/LAPACK       :  OpenBLAS 0.3.15  USE64BITINT DYNAMIC_ARCH NO_AFFINITY SkylakeX SINGLE_THREADED
        Core in use  :  SkylakeX
   Copyright (c) 2011-2014, The OpenBLAS Project


Your calculation utilizes the atom-pairwise dispersion correction
with the Becke-Johnson damping scheme (D3BJ)
Cite in your paper:
S.Grimme, S.Ehrlich, L.Goerigk, J Comput Chem, (2011), 32, 1456–1465 
S.Grimme, J.Antony, S.Ehrlich and H.Krieg, J.Chem.Phys., 132, (2010), 154104 
   

================================================================================

----- Orbital basis set information -----
Your calculation utilizes the basis: def2-SVP
   F. Weigend and R. Ahlrichs, Phys. Chem. Chem. Phys. 7, 3297 (2005).

----- AuxJ basis set information -----
Your calculation utilizes the auxiliary basis: def2/J
   F. Weigend, Phys. Chem. Chem. Phys. 8, 1057 (2006).

================================================================================
                                        WARNINGS
                       Please study these warnings very carefully!
================================================================================


WARNING: your system is open-shell and RHF/RKS was chosen
  ===> : WILL SWITCH to UHF/UKS


WARNING: Geometry Optimization
  ===> : Switching off AutoStart
         For restart on a previous wavefunction, please use MOREAD

INFO   : the flag for use of the SHARK integral package has been found!

================================================================================
                                       INPUT FILE
================================================================================
NAME = path_opt4_orca.inp
|  1> ! LooseOpt PBE0 RIJCOSX D3BJ def2-SVP def2/J 
|  2> %geom Constraints
|  3> { B 1 5 2.3935222392160265 C }
|  4> { B 0 1 1.9027153795007314 C }
|  5>     end
|  6> end
|  7> %geom MaxIter 50 end
|  8> %output 
|  9> xyzfile=True 
| 10> end 
| 11> %scf 
| 12> maxiter 250 
| 13> end
| 14> %output
| 15> Print[P_Hirshfeld] = 1
| 16> end
| 17> % maxcore
| 18> 4000
| 19> %pal nprocs 8
| 20> end
| 21> *xyz 0 2
| 22> O   -2.19866823  -0.95153572   0.99381022 
| 23> O   -0.76850039   0.12632830   1.01753764 
| 24> C   -0.65793155   0.58120606  -0.28552993 
| 25> C    0.52241403   1.40626018   0.13336433 
| 26> C    1.59340067   0.51019733   0.22482010 
| 27> C    1.18134787  -0.71032522  -0.27481930 
| 28> C   -0.09686608  -0.60480012  -1.03842669 
| 29> H   -2.15557097  -1.07063890   1.95402350 
| 30> H   -1.55223837   1.09291778  -0.67103755 
| 31> H    0.46002319   2.42269307   0.52040436 
| 32> H    2.55457048   0.70749737   0.70132163 
| 33> H    1.79498382  -1.61428201  -0.24578881 
| 34> H    0.09171027  -0.43037696  -2.11348348 
| 35> H   -0.76867473  -1.46504117  -0.91619603 
| 36> *
| 37> 
| 38>                          ****END OF INPUT****
================================================================================

                       *****************************
                       * Geometry Optimization Run *
                       *****************************

Geometry optimization settings:
Update method            Update   .... BFGS
Choice of coordinates    CoordSys .... Z-matrix Internals
Initial Hessian          InHess   .... Almoef's Model

Convergence Tolerances:
Energy Change            TolE     ....  3.0000e-05 Eh
Max. Gradient            TolMAXG  ....  2.0000e-03 Eh/bohr
RMS Gradient             TolRMSG  ....  5.0000e-04 Eh/bohr
Max. Displacement        TolMAXD  ....  1.0000e-02 bohr
RMS Displacement         TolRMSD  ....  7.0000e-03 bohr
Strict Convergence                ....  False
------------------------------------------------------------------------------
                        ORCA OPTIMIZATION COORDINATE SETUP
------------------------------------------------------------------------------

The optimization will be done in new redundant internal coordinates
Making redundant internal coordinates   ...  (new redundants) done
Evaluating the initial hessian          ...  (Almloef) done
Evaluating the coordinates              ...  done
Calculating the B-matrix                .... done
Calculating the G-matrix                .... done
Diagonalizing the G-matrix              .... done
Imposing constraints:
 Iter   0:  RMS(Cart)=    0.0402960818 RMS(Int)=    0.0315015638
 Iter   1:  RMS(Cart)=    0.0072982815 RMS(Int)=    0.0076879292
 Iter   2:  RMS(Cart)=    0.0019353925 RMS(Int)=    0.0019327202
 Iter   3:  RMS(Cart)=    0.0004863788 RMS(Int)=    0.0004859058
 Iter   4:  RMS(Cart)=    0.0001222836 RMS(Int)=    0.0001221630
 Iter   5:  RMS(Cart)=    0.0000307438 RMS(Int)=    0.0000307134
 Iter   6:  RMS(Cart)=    0.0000077294 RMS(Int)=    0.0000077218
 Iter   7:  RMS(Cart)=    0.0000019433 RMS(Int)=    0.0000019414
 Iter   8:  RMS(Cart)=    0.0000004886 RMS(Int)=    0.0000004881
 Iter   9:  RMS(Cart)=    0.0000001228 RMS(Int)=    0.0000001227
 Iter  10:  RMS(Cart)=    0.0000000309 RMS(Int)=    0.0000000309
CONVERGED
The first mode is                       ....   35
The number of degrees of freedom        ....   36
Storing new coordinates                 .... done

    -----------------------------------------------------------------
                    Redundant Internal Coordinates


    -----------------------------------------------------------------
         Definition                    Initial Value    Approx d2E/dq
    -----------------------------------------------------------------
      1. B(O   1,O   0)                  1.9027         0.114873 C 
      2. B(C   2,O   1)                  1.3717         0.570804   
      3. B(C   3,C   2)                  1.4971         0.417406   
      4. B(C   4,C   3)                  1.3899         0.603601   
      5. B(C   5,O   1)                  2.3935         0.010043 C 
      6. B(C   5,C   4)                  1.3781         0.644134   
      7. B(C   6,C   2)                  1.4993         0.398089   
      8. B(C   6,C   5)                  1.4842         0.428485   
      9. B(H   7,O   0)                  0.9689         0.503913   
     10. B(H   8,C   2)                  1.1001         0.346967   
     11. B(H   9,C   3)                  1.0895         0.360873   
     12. B(H  10,C   4)                  1.0909         0.359053   
     13. B(H  11,C   5)                  1.0933         0.356225   
     14. B(H  12,C   6)                  1.1056         0.340394   
     15. B(H  13,C   6)                  1.0986         0.349275   
     16. A(O   1,O   0,H   7)           91.4074         0.277985   
     17. A(O   0,O   1,C   2)          104.3618         0.314538   
     18. A(O   1,C   2,C   3)           88.3638         0.396111   
     19. A(C   3,C   2,C   6)          107.4194         0.374404   
     20. A(O   1,C   2,C   6)          102.0683         0.392835   
     21. A(C   3,C   2,H   8)          118.2787         0.328282   
     22. A(C   6,C   2,H   8)          119.2897         0.325729   
     23. A(O   1,C   2,H   8)          116.2813         0.343734   
     24. A(C   2,C   3,C   4)          104.9038         0.402599   
     25. A(C   2,C   3,H   9)          125.0767         0.330420   
     26. A(C   4,C   3,H   9)          128.1997         0.351440   
     27. A(C   5,C   4,H  10)          125.6716         0.355024   
     28. A(C   3,C   4,C   5)          107.8143         0.434956   
     29. A(C   3,C   4,H  10)          126.1734         0.351140   
     30. A(C   4,C   5,C   6)          113.2859         0.409139   
     31. A(C   4,C   5,H  11)          123.0787         0.354549   
     32. A(C   6,C   5,H  11)          122.9816         0.331144   
     33. A(H  12,C   6,H  13)          109.4391         0.286913   
     34. A(C   2,C   6,H  12)          115.5061         0.324707   
     35. A(C   5,C   6,H  12)          112.0339         0.328665   
     36. A(C   2,C   6,H  13)          109.6533         0.326085   
     37. A(C   2,C   6,C   5)           95.4735         0.376101   
     38. A(C   5,C   6,H  13)          114.2715         0.330066   
     39. D(C   2,O   1,O   0,H   7)   -174.3872         0.002317   
     40. D(C   3,C   2,O   1,O   0)    178.0252         0.028337   
     41. D(C   6,C   2,O   1,O   0)    -74.5084         0.028337   
     42. D(H   8,C   2,O   1,O   0)     57.0619         0.028337   
     43. D(C   4,C   3,C   2,O   1)     75.5736         0.012888   
     44. D(C   4,C   3,C   2,C   6)    -26.5636         0.012888   
     45. D(H   9,C   3,C   2,H   8)     29.0989         0.012888   
     46. D(H   9,C   3,C   2,O   1)    -90.0855         0.012888   
     47. D(C   4,C   3,C   2,H   8)   -165.2420         0.012888   
     48. D(H   9,C   3,C   2,C   6)    167.7773         0.012888   
     49. D(C   5,C   4,C   3,C   2)      7.4570         0.025133   
     50. D(C   5,C   4,C   3,H   9)    172.5090         0.025133   
     51. D(H  10,C   4,C   3,C   2)   -166.1222         0.025133   
     52. D(H  10,C   4,C   3,H   9)     -1.0702         0.025133   
     53. D(C   6,C   5,C   4,C   3)     14.7703         0.031365   
     54. D(C   6,C   5,C   4,H  10)   -171.6097         0.031365   
     55. D(H  11,C   5,C   4,C   3)   -174.2584         0.031365   
     56. D(H  11,C   5,C   4,H  10)     -0.6384         0.031365   
     57. D(H  12,C   6,C   5,H  11)    -79.6510         0.014516   
     58. D(C   5,C   6,C   2,C   3)     31.8753         0.012578   
     59. D(C   5,C   6,C   2,H   8)    170.0610         0.012578   
     60. D(H  13,C   6,C   2,H   8)    -71.7286         0.012578   
     61. D(H  12,C   6,C   2,C   3)    -85.7241         0.012578   
     62. D(H  12,C   6,C   2,H   8)     52.4616         0.012578   
     63. D(H  13,C   6,C   2,O   1)     57.9951         0.012578   
     64. D(H  12,C   6,C   2,O   1)   -177.8147         0.012578   
     65. D(H  13,C   6,C   2,C   3)    150.0856         0.012578   
     66. D(C   2,C   6,C   5,C   4)    -29.0305         0.014516   
     67. D(C   2,C   6,C   5,H  11)    159.9882         0.014516   
     68. D(C   5,C   6,C   2,O   1)    -60.2153         0.012578   
     69. D(H  12,C   6,C   5,C   4)     91.3304         0.014516   
     70. D(H  13,C   6,C   5,C   4)   -143.4766         0.014516   
     71. D(H  13,C   6,C   5,H  11)     45.5421         0.014516   
    -----------------------------------------------------------------

Number of atoms                         .... 14
Number of degrees of freedom            .... 71

         *************************************************************
         *                GEOMETRY OPTIMIZATION CYCLE   1            *
         *************************************************************
---------------------------------
CARTESIAN COORDINATES (ANGSTROEM)
---------------------------------
  O     -2.229207   -1.014721    0.990859
  O     -0.711730    0.133141    0.992564
  C     -0.635932    0.598824   -0.295402
  C      0.541626    1.425523    0.118329
  C      1.593644    0.522995    0.221018
  C      1.154747   -0.692369   -0.257934
  C     -0.108844   -0.596858   -1.030540
  H     -2.161752   -1.144767    1.948622
  H     -1.527317    1.116820   -0.679345
  H      0.488007    2.444125    0.501087
  H      2.556457    0.708139    0.699238
  H      1.754628   -1.605012   -0.208622
  H      0.075545   -0.448540   -2.110567
  H     -0.789871   -1.447201   -0.889307

----------------------------
CARTESIAN COORDINATES (A.U.)
----------------------------
  NO LB      ZA    FRAG     MASS         X           Y           Z
   0 O     8.0000    0    15.999   -4.212591   -1.917544    1.872452
   1 O     8.0000    0    15.999   -1.344975    0.251600    1.875675
   2 C     6.0000    0    12.011   -1.201736    1.131614   -0.558229
   3 C     6.0000    0    12.011    1.023524    2.693849    0.223610
   4 C     6.0000    0    12.011    3.011550    0.988317    0.417663
   5 C     6.0000    0    12.011    2.182156   -1.308389   -0.487424
   6 C     6.0000    0    12.011   -0.205686   -1.127899   -1.947438
   7 H     1.0000    0     1.008   -4.085120   -2.163296    3.682361
   8 H     1.0000    0     1.008   -2.886211    2.110484   -1.283775
   9 H     1.0000    0     1.008    0.922199    4.618728    0.946917
  10 H     1.0000    0     1.008    4.831003    1.338188    1.321368
  11 H     1.0000    0     1.008    3.315767   -3.033033   -0.394239
  12 H     1.0000    0     1.008    0.142759   -0.847618   -3.988393
  13 H     1.0000    0     1.008   -1.492639   -2.734813   -1.680547

--------------------------------
INTERNAL COORDINATES (ANGSTROEM)
--------------------------------
 O      0   0   0     0.000000000000     0.00000000     0.00000000
 O      1   0   0     1.791014764495     0.00000000     0.00000000
 C      2   1   0     1.384602591687   104.41903375     0.00000000
 C      3   2   1     1.499800783509    88.89521580   178.54003674
 C      4   3   2     1.399394573405   105.56406000    77.67576239
 C      5   4   3     1.381702694171   108.28588431     7.98288709
 C      6   5   4     1.492669653596   112.20467092    14.08959151
 H      1   2   3     0.968531096245    91.45207058   185.60103666
 H      3   2   1     1.100113493128   114.68852402    57.10942331
 H      4   3   2     1.089416551009   124.56992531   271.49423275
 H      5   4   3     1.090792563933   125.95182195   193.75526299
 H      6   5   4     1.092945436273   123.61155651   185.32515815
 H      7   6   5     1.105319673329   111.26148338    91.62016107
 H      7   6   5     1.098308636297   114.29848012   216.47457912

---------------------------
INTERNAL COORDINATES (A.U.)
---------------------------
 O      0   0   0     0.000000000000     0.00000000     0.00000000
 O      1   0   0     3.384527406706     0.00000000     0.00000000
 C      2   1   0     2.616519702607   104.41903375     0.00000000
 C      3   2   1     2.834212736273    88.89521580   178.54003674
 C      4   3   2     2.644472497031   105.56406000    77.67576239
 C      5   4   3     2.611039690484   108.28588431     7.98288709
 C      6   5   4     2.820736853712   112.20467092    14.08959151
 H      1   2   3     1.830258524090    91.45207058   185.60103666
 H      3   2   1     2.078913218243   114.68852402    57.10942331
 H      4   3   2     2.058698927168   124.56992531   271.49423275
 H      5   4   3     2.061299214751   125.95182195   193.75526299
 H      6   5   4     2.065367553874   123.61155651   185.32515815
 H      7   6   5     2.088751473028   111.26148338    91.62016107
 H      7   6   5     2.075502533121   114.29848012   216.47457912

---------------------
BASIS SET INFORMATION
---------------------
There are 3 groups of distinct atoms

 Group   1 Type O   : 7s4p1d contracted to 3s2p1d pattern {511/31/1}
 Group   2 Type C   : 7s4p1d contracted to 3s2p1d pattern {511/31/1}
 Group   3 Type H   : 4s1p contracted to 2s1p pattern {31/1}

Atom   0O    basis set group =>   1
Atom   1O    basis set group =>   1
Atom   2C    basis set group =>   2
Atom   3C    basis set group =>   2
Atom   4C    basis set group =>   2
Atom   5C    basis set group =>   2
Atom   6C    basis set group =>   2
Atom   7H    basis set group =>   3
Atom   8H    basis set group =>   3
Atom   9H    basis set group =>   3
Atom  10H    basis set group =>   3
Atom  11H    basis set group =>   3
Atom  12H    basis set group =>   3
Atom  13H    basis set group =>   3
---------------------------------
AUXILIARY/J BASIS SET INFORMATION
---------------------------------
There are 3 groups of distinct atoms

 Group   1 Type O   : 12s5p4d2f1g contracted to 6s4p3d1f1g pattern {711111/2111/211/2/1}
 Group   2 Type C   : 12s5p4d2f1g contracted to 6s4p3d1f1g pattern {711111/2111/211/2/1}
 Group   3 Type H   : 5s2p1d contracted to 3s1p1d pattern {311/2/1}

Atom   0O    basis set group =>   1
Atom   1O    basis set group =>   1
Atom   2C    basis set group =>   2
Atom   3C    basis set group =>   2
Atom   4C    basis set group =>   2
Atom   5C    basis set group =>   2
Atom   6C    basis set group =>   2
Atom   7H    basis set group =>   3
Atom   8H    basis set group =>   3
Atom   9H    basis set group =>   3
Atom  10H    basis set group =>   3
Atom  11H    basis set group =>   3
Atom  12H    basis set group =>   3
Atom  13H    basis set group =>   3


           ************************************************************
           *        Program running with 8 parallel MPI-processes     *
           *              working on a common directory               *
           ************************************************************
------------------------------------------------------------------------------
                           ORCA GTO INTEGRAL CALCULATION
                           -- RI-GTO INTEGRALS CHOSEN --
------------------------------------------------------------------------------
------------------------------------------------------------------------------
                   ___                                                        
                  /   \      - P O W E R E D   B Y -                         
                 /     \                                                     
                 |  |  |   _    _      __       _____    __    __             
                 |  |  |  | |  | |    /  \     |  _  \  |  |  /  |          
                  \  \/   | |  | |   /    \    | | | |  |  | /  /          
                 / \  \   | |__| |  /  /\  \   | |_| |  |  |/  /          
                |  |  |   |  __  | /  /__\  \  |    /   |      \           
                |  |  |   | |  | | |   __   |  |    \   |  |\   \          
                \     /   | |  | | |  |  |  |  | |\  \  |  | \   \       
                 \___/    |_|  |_| |__|  |__|  |_| \__\ |__|  \__/        
                                                                              
                      - O R C A' S   B I G   F R I E N D -                    
                                      &                                       
                       - I N T E G R A L  F E E D E R -                       
                                                                              
 v1 FN, 2020, v2 2021                                                         
------------------------------------------------------------------------------


Reading SHARK input file path_opt4_orca.SHARKINP.tmp ... ok
----------------------
SHARK INTEGRAL PACKAGE
----------------------

Number of atoms                             ...     14
Number of basis functions                   ...    133
Number of shells                            ...     63
Maximum angular momentum                    ...      2
Integral batch strategy                     ... SHARK/LIBINT Hybrid
RI-J (if used) integral strategy            ... SPLIT-RIJ (Revised 2003 algorithm where possible)
Printlevel                                  ...      1
Contraction scheme used                     ... SEGMENTED contraction
Coulomb Range Separation                    ... NOT USED
Exchange Range Separation                   ... NOT USED
Finite Nucleus Model                        ... NOT USED
Auxiliary Coulomb fitting basis             ... AVAILABLE
   # of basis functions in Aux-J            ...    420
   # of shells in Aux-J                     ...    140
   Maximum angular momentum in Aux-J        ...      4
Auxiliary J/K fitting basis                 ... NOT available
Auxiliary Correlation fitting basis         ... NOT available
Auxiliary 'external' fitting basis          ... NOT available
Integral threshold                          ...     2.500000e-11
Primitive cut-off                           ...     2.500000e-12
Primitive pair pre-selection threshold      ...     2.500000e-12

Calculating pre-screening integrals         ... done (  0.0 sec) Dimension = 63
Organizing shell pair data                  ... done (  0.0 sec)
Shell pair information
Total number of shell pairs                 ...      2016
Shell pairs after pre-screening             ...      1963
Total number of primitive shell pairs       ...      7252
Primitive shell pairs kept                  ...      5395
          la=0 lb=0:    607 shell pairs
          la=1 lb=0:    719 shell pairs
          la=1 lb=1:    226 shell pairs
          la=2 lb=0:    238 shell pairs
          la=2 lb=1:    145 shell pairs
          la=2 lb=2:     28 shell pairs

Calculating one electron integrals          ... done (  0.0 sec)
Calculating RI/J V-Matrix + Cholesky decomp.... done (  0.0 sec)
Calculating Nuclear repulsion               ... done (  0.0 sec) ENN=    302.949400286878 Eh

SHARK setup successfully completed in   0.1 seconds

Maximum memory used throughout the entire GTOINT-calculation: 10.7 MB


           ************************************************************
           *        Program running with 8 parallel MPI-processes     *
           *              working on a common directory               *
           ************************************************************
-------------------------------------------------------------------------------
                                 ORCA SCF
-------------------------------------------------------------------------------

------------
SCF SETTINGS
------------
Hamiltonian:
 Density Functional     Method          .... DFT(GTOs)
 Exchange Functional    Exchange        .... PBE
   PBE kappa parameter   XKappa         ....  0.804000
   PBE mue parameter    XMuePBE         ....  0.219520
 Correlation Functional Correlation     .... PBE
   PBE beta parameter  CBetaPBE         ....  0.066725
 LDA part of GGA corr.  LDAOpt          .... PW91-LDA
 Gradients option       PostSCFGGA      .... off
 Hybrid DFT is turned on
   Fraction HF Exchange ScalHFX         ....  0.250000
   Scaling of DF-GGA-X  ScalDFX         ....  0.750000
   Scaling of DF-GGA-C  ScalDFC         ....  1.000000
   Scaling of DF-LDA-C  ScalLDAC        ....  1.000000
   Perturbative correction              ....  0.000000
   Density functional embedding theory  .... OFF
   NL short-range parameter             ....  6.900000
 RI-approximation to the Coulomb term is turned on
   Number of AuxJ basis functions       .... 420
   RIJ-COSX (HFX calculated with COS-X)).... on


General Settings:
 Integral files         IntName         .... path_opt4_orca
 Hartree-Fock type      HFTyp           .... UHF
 Total Charge           Charge          ....    0
 Multiplicity           Mult            ....    2
 Number of Electrons    NEL             ....   53
 Basis Dimension        Dim             ....  133
 Nuclear Repulsion      ENuc            ....    302.9494002869 Eh

Convergence Acceleration:
 DIIS                   CNVDIIS         .... on
   Start iteration      DIISMaxIt       ....    12
   Startup error        DIISStart       ....  0.200000
   # of expansion vecs  DIISMaxEq       ....     5
   Bias factor          DIISBfac        ....   1.050
   Max. coefficient     DIISMaxC        ....  10.000
 Trust-Rad. Augm. Hess. CNVTRAH         .... auto
   Auto Start mean grad. ratio tolernc. ....  1.125000
   Auto Start start iteration           ....    20
   Auto Start num. interpolation iter.  ....    10
   Max. Number of Micro iterations      ....    16
   Max. Number of Macro iterations      .... Maxiter - #DIIS iter
   Number of Davidson start vectors     ....     2
   Converg. threshold I  (grad. norm)   ....   1.000e-05
   Converg. threshold II (energy diff.) ....   1.000e-08
   Grad. Scal. Fac. for Micro threshold ....   0.100
   Minimum threshold for Micro iter.    ....   0.010
   NR start threshold (gradient norm)   ....   0.001
   Initial trust radius                 ....   0.400
   Minimum AH scaling param. (alpha)    ....   1.000
   Maximum AH scaling param. (alpha)    .... 1000.000
   Orbital update algorithm             .... Taylor
   White noise on init. David. guess    .... on
   Maximum white noise                  ....   0.010
   Quad. conv. algorithm                .... NR
 SOSCF                  CNVSOSCF        .... off
 Level Shifting         CNVShift        .... on
   Level shift para.    LevelShift      ....    0.2500
   Turn off err/grad.   ShiftErr        ....    0.0010
 Zerner damping         CNVZerner       .... off
 Static damping         CNVDamp         .... on
   Fraction old density DampFac         ....    0.7000
   Max. Damping (<1)    DampMax         ....    0.9800
   Min. Damping (>=0)   DampMin         ....    0.0000
   Turn off err/grad.   DampErr         ....    0.1000
 Fernandez-Rico         CNVRico         .... off

SCF Procedure:
 Maximum # iterations   MaxIter         ....   250
 SCF integral mode      SCFMode         .... Direct
   Integral package                     .... SHARK and LIBINT hybrid scheme
 Reset frequency        DirectResetFreq ....    20
 Integral Threshold     Thresh          ....  2.500e-11 Eh
 Primitive CutOff       TCut            ....  2.500e-12 Eh

Convergence Tolerance:
 Convergence Check Mode ConvCheckMode   .... Total+1el-Energy
 Convergence forced     ConvForced      .... 0
 Energy Change          TolE            ....  1.000e-08 Eh
 1-El. energy change                    ....  1.000e-05 Eh
 DIIS Error             TolErr          ....  5.000e-07


Diagonalization of the overlap matrix:
Smallest eigenvalue                        ... 8.018e-04
Time for diagonalization                   ...    0.003 sec
Threshold for overlap eigenvalues          ... 1.000e-08
Number of eigenvalues below threshold      ... 0
Time for construction of square roots      ...    0.001 sec
Total time needed                          ...    0.004 sec

Time for model grid setup =    0.042 sec

------------------------------
INITIAL GUESS: MODEL POTENTIAL
------------------------------
Loading Hartree-Fock densities                     ... done
Calculating cut-offs                               ... done
Initializing the effective Hamiltonian             ... done
Setting up the integral package (SHARK)            ... done
Starting the Coulomb interaction                   ... done (   0.0 sec)
Reading the grid                                   ... done
Mapping shells                                     ... done
Starting the XC term evaluation                    ... done (   0.0 sec)
  promolecular density results
     # of electrons  =     52.996085889
     EX              =    -43.858011209
     EC              =     -1.754034284
     EX+EC           =    -45.612045493
Transforming the Hamiltonian                       ... done (   0.0 sec)
Diagonalizing the Hamiltonian                      ... done (   0.0 sec)
Back transforming the eigenvectors                 ... done (   0.0 sec)
Now organizing SCF variables                       ... done
                      ------------------
                      INITIAL GUESS DONE (   0.1 sec)
                      ------------------
-------------------
DFT GRID GENERATION
-------------------

General Integration Accuracy     IntAcc      ... 4.388
Radial Grid Type                 RadialGrid  ... OptM3 with GC (2021)
Angular Grid (max. ang.)         AngularGrid ... 4 (Lebedev-302)
Angular grid pruning method      GridPruning ... 4 (adaptive)
Weight generation scheme         WeightScheme... Becke
Basis function cutoff            BFCut       ... 1.0000e-11
Integration weight cutoff        WCut        ... 1.0000e-14
Angular grids for H and He will be reduced by one unit
Partially contracted basis set               ... off
Rotationally invariant grid construction     ... off

Total number of grid points                  ...    64842
Total number of batches                      ...     1022
Average number of points per batch           ...       63
Average number of grid points per atom       ...     4632
Time for grid setup =    0.245 sec

--------------------
COSX GRID GENERATION
--------------------

GRIDX 1
-------
General Integration Accuracy     IntAcc      ... 3.816
Radial Grid Type                 RadialGrid  ... OptM3 with GC (2021)
Angular Grid (max. ang.)         AngularGrid ... 1 (Lebedev-50)
Angular grid pruning method      GridPruning ... 4 (adaptive)
Weight generation scheme         WeightScheme... Becke
Basis function cutoff            BFCut       ... 1.0000e-11
Integration weight cutoff        WCut        ... 1.0000e-14
Angular grids for H and He will be reduced by one unit
Partially contracted basis set               ... on
Rotationally invariant grid construction     ... off

Total number of grid points                  ...     8289
Total number of batches                      ...      136
Average number of points per batch           ...       60
Average number of grid points per atom       ...      592
UseSFitting                                  ... on

GRIDX 2
-------
General Integration Accuracy     IntAcc      ... 4.020
Radial Grid Type                 RadialGrid  ... OptM3 with GC (2021)
Angular Grid (max. ang.)         AngularGrid ... 2 (Lebedev-110)
Angular grid pruning method      GridPruning ... 4 (adaptive)
Weight generation scheme         WeightScheme... Becke
Basis function cutoff            BFCut       ... 1.0000e-11
Integration weight cutoff        WCut        ... 1.0000e-14
Angular grids for H and He will be reduced by one unit
Partially contracted basis set               ... on
Rotationally invariant grid construction     ... off

Total number of grid points                  ...    18025
Total number of batches                      ...      288
Average number of points per batch           ...       62
Average number of grid points per atom       ...     1288
UseSFitting                                  ... on

GRIDX 3
-------
General Integration Accuracy     IntAcc      ... 4.338
Radial Grid Type                 RadialGrid  ... OptM3 with GC (2021)
Angular Grid (max. ang.)         AngularGrid ... 3 (Lebedev-194)
Angular grid pruning method      GridPruning ... 4 (adaptive)
Weight generation scheme         WeightScheme... Becke
Basis function cutoff            BFCut       ... 1.0000e-11
Integration weight cutoff        WCut        ... 1.0000e-14
Angular grids for H and He will be reduced by one unit
Partially contracted basis set               ... on
Rotationally invariant grid construction     ... off

Total number of grid points                  ...    39579
Total number of batches                      ...      625
Average number of points per batch           ...       63
Average number of grid points per atom       ...     2827
UseSFitting                                  ... on

Time for X-Grid setup             =    0.180 sec

--------------
SCF ITERATIONS
--------------
ITER       Energy         Delta-E        Max-DP      RMS-DP      [F,P]     Damp
               ***  Starting incremental Fock matrix formation  ***
  0   -344.1177795340   0.000000000000 0.06004845  0.00164787  0.1513639 0.7000
  1   -344.2150148712  -0.097235337184 0.03544051  0.00105919  0.0491476 0.7000
                               ***Turning on DIIS***
  2   -344.2458433665  -0.030828495317 0.03758919  0.00165978  0.0174590 0.0000
  3   -344.3015111552  -0.055667788722 0.03254702  0.00097790  0.0322787 0.0000
  4   -344.3149030286  -0.013391873342 0.01144154  0.00034719  0.0158282 0.0000
  5   -344.3180272795  -0.003124250889 0.00725955  0.00017221  0.0054360 0.0000
  6   -344.3191282207  -0.001100941202 0.00742973  0.00017312  0.0055661 0.0000
  7   -344.3201388828  -0.001010662184 0.00775228  0.00018506  0.0042278 0.0000
  8   -344.3211396928  -0.001000809932 0.01095779  0.00025077  0.0036845 0.0000
  9   -344.3222237962  -0.001084103385 0.00660985  0.00014982  0.0028984 0.0000
 10   -344.3227486209  -0.000524824767 0.00857080  0.00018733  0.0021635 0.0000
 11   -344.3232180437  -0.000469422733 0.00489767  0.00010094  0.0024146 0.0000
 12   -344.3234292835  -0.000211239881 0.00620641  0.00011959  0.0014529 0.0000
 13   -344.3235823335  -0.000153049929 0.00575367  0.00013829  0.0009204 0.0000
               *** Restarting incremental Fock matrix formation ***
                                   *** Resetting DIIS ***
 14   -344.3236572039  -0.000074870413 0.00199341  0.00004603  0.0007279 0.0000
 15   -344.3236584482  -0.000001244349 0.00067318  0.00001607  0.0012873 0.0000
 16   -344.3236700042  -0.000011555987 0.00099536  0.00002079  0.0004108 0.0000
 17   -344.3236756960  -0.000005691778 0.00124521  0.00002167  0.0003575 0.0000
 18   -344.3236808636  -0.000005167602 0.00172698  0.00002506  0.0003522 0.0000
 19   -344.3236850215  -0.000004157884 0.00129253  0.00002075  0.0001955 0.0000
 20   -344.3236870708  -0.000002049290 0.00088749  0.00001302  0.0001107 0.0000
 21   -344.3236877723  -0.000000701519 0.00046394  0.00000664  0.0000559 0.0000
 22   -344.3236879371  -0.000000164813 0.00015972  0.00000226  0.0000247 0.0000
 23   -344.3236879574  -0.000000020267 0.00010375  0.00000153  0.0000133 0.0000
 24   -344.3236879688  -0.000000011478 0.00003733  0.00000049  0.0000106 0.0000
 25   -344.3236879735  -0.000000004618 0.00002755  0.00000036  0.0000099 0.0000
 26   -344.3236879711   0.000000002365 0.00001230  0.00000022  0.0000061 0.0000
 27   -344.3236879719  -0.000000000799 0.00000911  0.00000018  0.0000034 0.0000
                 **** Energy Check signals convergence ****

               *****************************************************
               *                     SUCCESS                       *
               *           SCF CONVERGED AFTER  28 CYCLES          *
               *****************************************************

Old exchange energy                            =    -11.168645969 Eh
New exchange energy                            =    -11.168666038 Eh
Exchange energy change after final integration =     -0.000020070 Eh
Total energy after final integration           =   -344.323708044 Eh
Final COS-X integration done in                =     0.678 sec

----------------
TOTAL SCF ENERGY
----------------

Total Energy       :         -344.32370804 Eh           -9369.52443 eV

Components:
Nuclear Repulsion  :          302.94940029 Eh            8243.67228 eV
Electronic Energy  :         -647.27310833 Eh          -17613.19672 eV
One Electron Energy:        -1069.38299844 Eh          -29099.39077 eV
Two Electron Energy:          422.10989011 Eh           11486.19406 eV
Max COSX asymmetry :            0.00000140 Eh               0.00004 eV

Virial components:
Potential Energy   :         -685.91517260 Eh          -18664.70074 eV
Kinetic Energy     :          341.59146456 Eh            9295.17631 eV
Virial Ratio       :            2.00799857


DFT components:
N(Alpha)           :       27.000017828671 electrons
N(Beta)            :       26.000014829248 electrons
N(Total)           :       53.000032657919 electrons
E(X)               :      -33.459986700449 Eh       
E(C)               :       -1.766303710027 Eh       
E(XC)              :      -35.226290410476 Eh       
DFET-embed. en.    :        0.000000000000 Eh       

---------------
SCF CONVERGENCE
---------------

  Last Energy change         ...   -2.1137e-09  Tolerance :   1.0000e-08
  Last MAX-Density change    ...    0.0000e+00  Tolerance :   1.0000e-07
  Last RMS-Density change    ...    0.0000e+00  Tolerance :   5.0000e-09
  Last DIIS Error            ...    2.6566e-06  Tolerance :   5.0000e-07

             **** THE GBW FILE WAS UPDATED (path_opt4_orca.gbw) ****
             **** DENSITY path_opt4_orca.scfp WAS UPDATED ****
             **** ENERGY FILE WAS UPDATED (path_opt4_orca.en.tmp) ****
----------------------
UHF SPIN CONTAMINATION
----------------------

Warning: in a DFT calculation there is little theoretical justification to 
         calculate <S**2> as in Hartree-Fock theory. We will do it anyways
         but you should keep in mind that the values have only limited relevance

Expectation value of <S**2>     :     0.957292
Ideal value S*(S+1) for S=0.5   :     0.750000
Deviation                       :     0.207292

             **** THE GBW FILE WAS UPDATED (path_opt4_orca.gbw) ****
             **** DENSITY path_opt4_orca.scfp WAS UPDATED ****
----------------
ORBITAL ENERGIES
----------------
                 SPIN UP ORBITALS
  NO   OCC          E(Eh)            E(eV) 
   0   1.0000     -19.229186      -523.2528 
   1   1.0000     -19.210196      -522.7360 
   2   1.0000     -10.285778      -279.8902 
   3   1.0000     -10.278555      -279.6937 
   4   1.0000     -10.263526      -279.2847 
   5   1.0000     -10.249275      -278.8970 
   6   1.0000     -10.232580      -278.4427 
   7   1.0000      -1.047044       -28.4915 
   8   1.0000      -0.954328       -25.9686 
   9   1.0000      -0.860284       -23.4095 
  10   1.0000      -0.751072       -20.4377 
  11   1.0000      -0.706517       -19.2253 
  12   1.0000      -0.581937       -15.8353 
  13   1.0000      -0.564812       -15.3693 
  14   1.0000      -0.556237       -15.1360 
  15   1.0000      -0.482226       -13.1220 
  16   1.0000      -0.457314       -12.4442 
  17   1.0000      -0.431273       -11.7355 
  18   1.0000      -0.417407       -11.3582 
  19   1.0000      -0.411222       -11.1899 
  20   1.0000      -0.397004       -10.8030 
  21   1.0000      -0.378674       -10.3043 
  22   1.0000      -0.358569        -9.7572 
  23   1.0000      -0.321508        -8.7487 
  24   1.0000      -0.301986        -8.2175 
  25   1.0000      -0.262746        -7.1497 
  26   1.0000      -0.215738        -5.8705 
  27   0.0000      -0.075542        -2.0556 
  28   0.0000       0.030707         0.8356 
  29   0.0000       0.077003         2.0954 
  30   0.0000       0.105230         2.8634 
  31   0.0000       0.119008         3.2384 
  32   0.0000       0.119762         3.2589 
  33   0.0000       0.133977         3.6457 
  34   0.0000       0.141919         3.8618 
  35   0.0000       0.157800         4.2940 
  36   0.0000       0.198373         5.3980 
  37   0.0000       0.217845         5.9279 
  38   0.0000       0.231759         6.3065 
  39   0.0000       0.268825         7.3151 
  40   0.0000       0.331144         9.0109 
  41   0.0000       0.373110        10.1528 
  42   0.0000       0.393459        10.7066 
  43   0.0000       0.435135        11.8406 
  44   0.0000       0.461082        12.5467 
  45   0.0000       0.485914        13.2224 
  46   0.0000       0.497604        13.5405 
  47   0.0000       0.528929        14.3929 
  48   0.0000       0.551020        14.9940 
  49   0.0000       0.578998        15.7553 
  50   0.0000       0.584220        15.8974 
  51   0.0000       0.606027        16.4908 
  52   0.0000       0.616430        16.7739 
  53   0.0000       0.633828        17.2473 
  54   0.0000       0.648007        17.6332 
  55   0.0000       0.651932        17.7400 
  56   0.0000       0.673763        18.3340 
  57   0.0000       0.690144        18.7798 
  58   0.0000       0.694600        18.9010 
  59   0.0000       0.709423        19.3044 
  60   0.0000       0.725322        19.7370 
  61   0.0000       0.738663        20.1000 
  62   0.0000       0.780551        21.2399 
  63   0.0000       0.793591        21.5947 
  64   0.0000       0.852733        23.2040 
  65   0.0000       0.877188        23.8695 
  66   0.0000       0.950139        25.8546 
  67   0.0000       0.991300        26.9746 
  68   0.0000       1.027081        27.9483 
  69   0.0000       1.045542        28.4506 
  70   0.0000       1.088580        29.6218 
  71   0.0000       1.101290        29.9676 
  72   0.0000       1.123705        30.5776 
  73   0.0000       1.179030        32.0830 
  74   0.0000       1.195482        32.5307 
  75   0.0000       1.241542        33.7841 
  76   0.0000       1.275301        34.7027 
  77   0.0000       1.327719        36.1291 
  78   0.0000       1.408270        38.3210 
  79   0.0000       1.457191        39.6522 
  80   0.0000       1.487208        40.4690 
  81   0.0000       1.544323        42.0232 
  82   0.0000       1.592383        43.3309 
  83   0.0000       1.625228        44.2247 
  84   0.0000       1.633450        44.4484 
  85   0.0000       1.642093        44.6836 
  86   0.0000       1.674946        45.5776 
  87   0.0000       1.687500        45.9192 
  88   0.0000       1.706360        46.4324 
  89   0.0000       1.735302        47.2200 
  90   0.0000       1.780890        48.4605 
  91   0.0000       1.808581        49.2140 
  92   0.0000       1.825450        49.6730 
  93   0.0000       1.850270        50.3484 
  94   0.0000       1.878711        51.1223 
  95   0.0000       1.898230        51.6535 
  96   0.0000       1.915838        52.1326 
  97   0.0000       1.952695        53.1355 
  98   0.0000       1.963729        53.4358 
  99   0.0000       2.019010        54.9401 
 100   0.0000       2.041757        55.5590 
 101   0.0000       2.072727        56.4018 
 102   0.0000       2.084376        56.7188 
 103   0.0000       2.102543        57.2131 
 104   0.0000       2.241527        60.9951 
 105   0.0000       2.249179        61.2033 
 106   0.0000       2.284998        62.1780 
 107   0.0000       2.315989        63.0213 
 108   0.0000       2.382446        64.8297 
 109   0.0000       2.412392        65.6445 
 110   0.0000       2.447384        66.5967 
 111   0.0000       2.478235        67.4362 
 112   0.0000       2.514294        68.4174 
 113   0.0000       2.636361        71.7390 
 114   0.0000       2.660399        72.3931 
 115   0.0000       2.681336        72.9629 
 116   0.0000       2.705334        73.6159 
 117   0.0000       2.722830        74.0920 
 118   0.0000       2.748971        74.8033 
 119   0.0000       2.774465        75.4970 
 120   0.0000       2.817814        76.6766 
 121   0.0000       2.860103        77.8274 
 122   0.0000       2.937176        79.9246 
 123   0.0000       2.974586        80.9426 
 124   0.0000       3.011841        81.9564 
 125   0.0000       3.021665        82.2237 
 126   0.0000       3.078261        83.7637 
 127   0.0000       3.083767        83.9136 
 128   0.0000       3.109827        84.6227 
 129   0.0000       3.185158        86.6725 
 130   0.0000       3.438440        93.5647 
 131   0.0000       3.472857        94.5012 
 132   0.0000       3.756430       102.2177 

                 SPIN DOWN ORBITALS
  NO   OCC          E(Eh)            E(eV) 
   0   1.0000     -19.234826      -523.4062 
   1   1.0000     -19.192986      -522.2677 
   2   1.0000     -10.286088      -279.8987 
   3   1.0000     -10.273091      -279.5450 
   4   1.0000     -10.254912      -279.0503 
   5   1.0000     -10.252676      -278.9895 
   6   1.0000     -10.233130      -278.4576 
   7   1.0000      -1.053469       -28.6664 
   8   1.0000      -0.913797       -24.8657 
   9   1.0000      -0.855005       -23.2659 
  10   1.0000      -0.747362       -20.3368 
  11   1.0000      -0.698589       -19.0096 
  12   1.0000      -0.578893       -15.7525 
  13   1.0000      -0.562433       -15.3046 
  14   1.0000      -0.551572       -15.0090 
  15   1.0000      -0.477198       -12.9852 
  16   1.0000      -0.456450       -12.4206 
  17   1.0000      -0.424138       -11.5414 
  18   1.0000      -0.411679       -11.2024 
  19   1.0000      -0.406439       -11.0598 
  20   1.0000      -0.391610       -10.6563 
  21   1.0000      -0.376701       -10.2505 
  22   1.0000      -0.341059        -9.2807 
  23   1.0000      -0.298880        -8.1329 
  24   1.0000      -0.276297        -7.5184 
  25   1.0000      -0.253825        -6.9069 
  26   0.0000      -0.090187        -2.4541 
  27   0.0000      -0.043001        -1.1701 
  28   0.0000       0.048962         1.3323 
  29   0.0000       0.078613         2.1392 
  30   0.0000       0.109043         2.9672 
  31   0.0000       0.120975         3.2919 
  32   0.0000       0.123558         3.3622 
  33   0.0000       0.136703         3.7199 
  34   0.0000       0.143760         3.9119 
  35   0.0000       0.160192         4.3590 
  36   0.0000       0.201514         5.4835 
  37   0.0000       0.220213         5.9923 
  38   0.0000       0.233666         6.3584 
  39   0.0000       0.274279         7.4635 
  40   0.0000       0.333503         9.0751 
  41   0.0000       0.378665        10.3040 
  42   0.0000       0.392653        10.6846 
  43   0.0000       0.442911        12.0522 
  44   0.0000       0.466456        12.6929 
  45   0.0000       0.494255        13.4494 
  46   0.0000       0.507011        13.7965 
  47   0.0000       0.542999        14.7758 
  48   0.0000       0.552749        15.0411 
  49   0.0000       0.586326        15.9547 
  50   0.0000       0.595591        16.2068 
  51   0.0000       0.611904        16.6508 
  52   0.0000       0.622389        16.9361 
  53   0.0000       0.639015        17.3885 
  54   0.0000       0.653434        17.7808 
  55   0.0000       0.658449        17.9173 
  56   0.0000       0.677001        18.4221 
  57   0.0000       0.693350        18.8670 
  58   0.0000       0.696002        18.9392 
  59   0.0000       0.711070        19.3492 
  60   0.0000       0.728585        19.8258 
  61   0.0000       0.741482        20.1768 
  62   0.0000       0.783133        21.3101 
  63   0.0000       0.798415        21.7260 
  64   0.0000       0.856707        23.3122 
  65   0.0000       0.878098        23.8943 
  66   0.0000       0.965117        26.2622 
  67   0.0000       1.001138        27.2424 
  68   0.0000       1.048763        28.5383 
  69   0.0000       1.057355        28.7721 
  70   0.0000       1.086631        29.5687 
  71   0.0000       1.105032        30.0694 
  72   0.0000       1.130488        30.7621 
  73   0.0000       1.182500        32.1775 
  74   0.0000       1.209400        32.9095 
  75   0.0000       1.250309        34.0226 
  76   0.0000       1.283537        34.9268 
  77   0.0000       1.332628        36.2626 
  78   0.0000       1.413165        38.4542 
  79   0.0000       1.457764        39.6678 
  80   0.0000       1.486417        40.4475 
  81   0.0000       1.553105        42.2621 
  82   0.0000       1.595767        43.4230 
  83   0.0000       1.627752        44.2934 
  84   0.0000       1.637053        44.5465 
  85   0.0000       1.646199        44.7953 
  86   0.0000       1.679847        45.7110 
  87   0.0000       1.691193        46.0197 
  88   0.0000       1.706608        46.4392 
  89   0.0000       1.739815        47.3428 
  90   0.0000       1.783654        48.5357 
  91   0.0000       1.809695        49.2443 
  92   0.0000       1.830484        49.8100 
  93   0.0000       1.853632        50.4399 
  94   0.0000       1.885583        51.3093 
  95   0.0000       1.904363        51.8204 
  96   0.0000       1.923211        52.3332 
  97   0.0000       1.964154        53.4474 
  98   0.0000       1.969582        53.5951 
  99   0.0000       2.023693        55.0675 
 100   0.0000       2.046150        55.6786 
 101   0.0000       2.077640        56.5355 
 102   0.0000       2.084795        56.7302 
 103   0.0000       2.104871        57.2764 
 104   0.0000       2.249803        61.2203 
 105   0.0000       2.255944        61.3874 
 106   0.0000       2.289084        62.2891 
 107   0.0000       2.327292        63.3288 
 108   0.0000       2.394275        65.1515 
 109   0.0000       2.419874        65.8481 
 110   0.0000       2.449981        66.6674 
 111   0.0000       2.482905        67.5633 
 112   0.0000       2.522448        68.6393 
 113   0.0000       2.641037        71.8663 
 114   0.0000       2.667642        72.5902 
 115   0.0000       2.704627        73.5967 
 116   0.0000       2.715773        73.9000 
 117   0.0000       2.732196        74.3468 
 118   0.0000       2.750333        74.8404 
 119   0.0000       2.772180        75.4349 
 120   0.0000       2.819406        76.7199 
 121   0.0000       2.861675        77.8701 
 122   0.0000       2.941418        80.0400 
 123   0.0000       3.007062        81.8263 
 124   0.0000       3.019941        82.1768 
 125   0.0000       3.027703        82.3880 
 126   0.0000       3.080943        83.8367 
 127   0.0000       3.088290        84.0367 
 128   0.0000       3.118651        84.8628 
 129   0.0000       3.186070        86.6974 
 130   0.0000       3.439773        93.6010 
 131   0.0000       3.466638        94.3320 
 132   0.0000       3.770715       102.6064 

                    ********************************
                    * MULLIKEN POPULATION ANALYSIS *
                    ********************************

--------------------------------------------
MULLIKEN ATOMIC CHARGES AND SPIN POPULATIONS
--------------------------------------------
   0 O :   -0.270502    0.618090
   1 O :   -0.294772   -0.244488
   2 C :    0.034429   -0.027640
   3 C :    0.010767    0.417909
   4 C :    0.000977   -0.264616
   5 C :   -0.059597    0.573325
   6 C :    0.103307   -0.049443
   7 H :    0.173466   -0.014846
   8 H :    0.038075    0.001915
   9 H :    0.060048   -0.020043
  10 H :    0.037807    0.009746
  11 H :    0.037312   -0.027697
  12 H :    0.052255    0.024039
  13 H :    0.076429    0.003751
Sum of atomic charges         :   -0.0000000
Sum of atomic spin populations:    1.0000000

-----------------------------------------------------
MULLIKEN REDUCED ORBITAL CHARGES AND SPIN POPULATIONS
-----------------------------------------------------
CHARGE
  0 O s       :     3.849036  s :     3.849036
      pz      :     1.333215  p :     4.414306
      px      :     1.479905
      py      :     1.601186
      dz2     :     0.004666  d :     0.007159
      dxz     :     0.000704
      dyz     :     0.000774
      dx2y2   :     0.000257
      dxy     :     0.000759
  1 O s       :     3.897526  s :     3.897526
      pz      :     1.408016  p :     4.383184
      px      :     1.514600
      py      :     1.460569
      dz2     :     0.005469  d :     0.014062
      dxz     :     0.002397
      dyz     :     0.003476
      dx2y2   :     0.000772
      dxy     :     0.001948
  2 C s       :     3.170120  s :     3.170120
      pz      :     0.774687  p :     2.712347
      px      :     0.981099
      py      :     0.956561
      dz2     :     0.022019  d :     0.083103
      dxz     :     0.017003
      dyz     :     0.022190
      dx2y2   :     0.007708
      dxy     :     0.014183
  3 C s       :     3.239071  s :     3.239071
      pz      :     0.957607  p :     2.714605
      px      :     0.909025
      py      :     0.847973
      dz2     :     0.002815  d :     0.035557
      dxz     :     0.005547
      dyz     :     0.006110
      dx2y2   :     0.010123
      dxy     :     0.010962
  4 C s       :     3.168877  s :     3.168877
      pz      :     0.966829  p :     2.793016
      px      :     0.874206
      py      :     0.951981
      dz2     :     0.003696  d :     0.037131
      dxz     :     0.005849
      dyz     :     0.006373
      dx2y2   :     0.010155
      dxy     :     0.011059
  5 C s       :     3.244055  s :     3.244055
      pz      :     0.892568  p :     2.777921
      px      :     0.963748
      py      :     0.921606
      dz2     :     0.005950  d :     0.037621
      dxz     :     0.005445
      dyz     :     0.005630
      dx2y2   :     0.008539
      dxy     :     0.012057
  6 C s       :     2.967002  s :     2.967002
      pz      :     0.941800  p :     2.894494
      px      :     0.944081
      py      :     1.008613
      dz2     :     0.009205  d :     0.035197
      dxz     :     0.006930
      dyz     :     0.004627
      dx2y2   :     0.006643
      dxy     :     0.007792
  7 H s       :     0.759467  s :     0.759467
      pz      :     0.034790  p :     0.067067
      px      :     0.015322
      py      :     0.016955
  8 H s       :     0.940932  s :     0.940932
      pz      :     0.003812  p :     0.020994
      px      :     0.011479
      py      :     0.005703
  9 H s       :     0.916161  s :     0.916161
      pz      :     0.006257  p :     0.023791
      px      :     0.003084
      py      :     0.014450
 10 H s       :     0.938367  s :     0.938367
      pz      :     0.006974  p :     0.023826
      px      :     0.013247
      py      :     0.003606
 11 H s       :     0.939151  s :     0.939151
      pz      :     0.004299  p :     0.023537
      px      :     0.007197
      py      :     0.012041
 12 H s       :     0.924822  s :     0.924822
      pz      :     0.014067  p :     0.022923
      px      :     0.004545
      py      :     0.004312
 13 H s       :     0.899429  s :     0.899429
      pz      :     0.004679  p :     0.024142
      px      :     0.009119
      py      :     0.010344

SPIN
  0 O s       :     0.006024  s :     0.006024
      pz      :     0.013181  p :     0.611912
      px      :     0.309498
      py      :     0.289233
      dz2     :    -0.000087  d :     0.000154
      dxz     :     0.000145
      dyz     :     0.000094
      dx2y2   :     0.000009
      dxy     :    -0.000008
  1 O s       :     0.005888  s :     0.005888
      pz      :    -0.001395  p :    -0.251305
      px      :    -0.060695
      py      :    -0.189215
      dz2     :     0.000141  d :     0.000929
      dxz     :     0.000079
      dyz     :     0.000007
      dx2y2   :    -0.000043
      dxy     :     0.000745
  2 C s       :    -0.007070  s :    -0.007070
      pz      :    -0.001966  p :    -0.022272
      px      :    -0.014400
      py      :    -0.005906
      dz2     :    -0.001243  d :     0.001702
      dxz     :     0.002436
      dyz     :     0.001209
      dx2y2   :     0.000040
      dxy     :    -0.000740
  3 C s       :     0.058143  s :     0.058143
      pz      :     0.311193  p :     0.362465
      px      :     0.015219
      py      :     0.036053
      dz2     :    -0.000663  d :    -0.002699
      dxz     :    -0.001013
      dyz     :    -0.000760
      dx2y2   :    -0.000205
      dxy     :    -0.000059
  4 C s       :    -0.047678  s :    -0.047678
      pz      :    -0.147545  p :    -0.222953
      px      :    -0.034685
      py      :    -0.040723
      dz2     :     0.000752  d :     0.006015
      dxz     :     0.000942
      dyz     :     0.003348
      dx2y2   :     0.000189
      dxy     :     0.000785
  5 C s       :     0.075016  s :     0.075016
      pz      :     0.344706  p :     0.500178
      px      :     0.114584
      py      :     0.040888
      dz2     :    -0.000410  d :    -0.001869
      dxz     :    -0.000661
      dyz     :    -0.000569
      dx2y2   :    -0.000083
      dxy     :    -0.000145
  6 C s       :    -0.014296  s :    -0.014296
      pz      :    -0.011887  p :    -0.038119
      px      :    -0.019339
      py      :    -0.006892
      dz2     :     0.002057  d :     0.002972
      dxz     :     0.000372
      dyz     :     0.000218
      dx2y2   :     0.000276
      dxy     :     0.000048
  7 H s       :    -0.019160  s :    -0.019160
      pz      :     0.000142  p :     0.004314
      px      :     0.002121
      py      :     0.002051
  8 H s       :     0.001980  s :     0.001980
      pz      :    -0.000026  p :    -0.000065
      px      :    -0.000027
      py      :    -0.000012
  9 H s       :    -0.022038  s :    -0.022038
      pz      :     0.001677  p :     0.001995
      px      :    -0.000091
      py      :     0.000409
 10 H s       :     0.010716  s :     0.010716
      pz      :    -0.000679  p :    -0.000970
      px      :    -0.000206
      py      :    -0.000084
 11 H s       :    -0.030674  s :    -0.030674
      pz      :     0.002070  p :     0.002976
      px      :     0.000601
      py      :     0.000305
 12 H s       :     0.024220  s :     0.024220
      pz      :    -0.000221  p :    -0.000181
      px      :     0.000033
      py      :     0.000007
 13 H s       :     0.003800  s :     0.003800
      pz      :    -0.000056  p :    -0.000049
      px      :    -0.000060
      py      :     0.000067


                     *******************************
                     * LOEWDIN POPULATION ANALYSIS *
                     *******************************

-------------------------------------------
LOEWDIN ATOMIC CHARGES AND SPIN POPULATIONS
-------------------------------------------
   0 O :   -0.168451    0.576373
   1 O :   -0.123705   -0.208838
   2 C :    0.031849   -0.002976
   3 C :    0.041638    0.314495
   4 C :   -0.038708   -0.150718
   5 C :    0.051828    0.453504
   6 C :   -0.054616   -0.008946
   7 H :    0.055240    0.003621
   8 H :    0.018863    0.001250
   9 H :    0.038319   -0.000654
  10 H :    0.036955    0.000656
  11 H :    0.027627   -0.000944
  12 H :    0.036646    0.019291
  13 H :    0.046513    0.003887

----------------------------------------------------
LOEWDIN REDUCED ORBITAL CHARGES AND SPIN POPULATIONS
----------------------------------------------------
CHARGE
  0 O s       :     3.664448  s :     3.664448
      pz      :     1.438597  p :     4.491147
      px      :     1.467746
      py      :     1.584803
      dz2     :     0.009955  d :     0.012857
      dxz     :     0.000484
      dyz     :     0.000721
      dx2y2   :     0.000401
      dxy     :     0.001295
  1 O s       :     3.651123  s :     3.651123
      pz      :     1.487851  p :     4.448559
      px      :     1.495446
      py      :     1.465262
      dz2     :     0.009617  d :     0.024023
      dxz     :     0.003603
      dyz     :     0.005968
      dx2y2   :     0.001173
      dxy     :     0.003661
  2 C s       :     2.848450  s :     2.848450
      pz      :     0.899876  p :     2.932895
      px      :     1.027847
      py      :     1.005172
      dz2     :     0.048036  d :     0.186807
      dxz     :     0.035586
      dyz     :     0.052628
      dx2y2   :     0.015891
      dxy     :     0.034666
  3 C s       :     2.910273  s :     2.910273
      pz      :     0.948911  p :     2.962536
      px      :     0.997719
      py      :     1.015906
      dz2     :     0.006581  d :     0.085553
      dxz     :     0.012227
      dyz     :     0.011233
      dx2y2   :     0.024699
      dxy     :     0.030812
  4 C s       :     2.866869  s :     2.866869
      pz      :     0.980923  p :     3.074092
      px      :     1.037195
      py      :     1.055974
      dz2     :     0.008277  d :     0.097747
      dxz     :     0.012768
      dyz     :     0.016186
      dx2y2   :     0.028170
      dxy     :     0.032345
  5 C s       :     2.895228  s :     2.895228
      pz      :     0.914333  p :     2.962088
      px      :     0.993666
      py      :     1.054089
      dz2     :     0.012360  d :     0.090856
      dxz     :     0.012847
      dyz     :     0.012679
      dx2y2   :     0.023639
      dxy     :     0.029331
  6 C s       :     2.841603  s :     2.841603
      pz      :     1.036078  p :     3.119795
      px      :     1.030623
      py      :     1.053093
      dz2     :     0.025185  d :     0.093218
      dxz     :     0.018051
      dyz     :     0.011873
      dx2y2   :     0.017851
      dxy     :     0.020258
  7 H s       :     0.762005  s :     0.762005
      pz      :     0.097822  p :     0.182754
      px      :     0.040452
      py      :     0.044480
  8 H s       :     0.914260  s :     0.914260
      pz      :     0.013846  p :     0.066877
      px      :     0.033959
      py      :     0.019072
  9 H s       :     0.888045  s :     0.888045
      pz      :     0.020133  p :     0.073636
      px      :     0.011529
      py      :     0.041975
 10 H s       :     0.893822  s :     0.893822
      pz      :     0.020231  p :     0.069222
      px      :     0.037036
      py      :     0.011956
 11 H s       :     0.901204  s :     0.901204
      pz      :     0.014044  p :     0.071169
      px      :     0.023150
      py      :     0.033974
 12 H s       :     0.896150  s :     0.896150
      pz      :     0.040121  p :     0.067204
      px      :     0.013385
      py      :     0.013698
 13 H s       :     0.882554  s :     0.882554
      pz      :     0.013036  p :     0.070933
      px      :     0.026095
      py      :     0.031802

SPIN
  0 O s       :     0.004412  s :     0.004412
      pz      :     0.006817  p :     0.572176
      px      :     0.290806
      py      :     0.274553
      dz2     :    -0.000139  d :    -0.000215
      dxz     :     0.000051
      dyz     :     0.000004
      dx2y2   :    -0.000025
      dxy     :    -0.000105
  1 O s       :     0.012229  s :     0.012229
      pz      :    -0.002161  p :    -0.222775
      px      :    -0.046287
      py      :    -0.174327
      dz2     :     0.000149  d :     0.001709
      dxz     :     0.000016
      dyz     :    -0.000006
      dx2y2   :    -0.000019
      dxy     :     0.001568
  2 C s       :     0.000057  s :     0.000057
      pz      :     0.003508  p :    -0.006316
      px      :    -0.006281
      py      :    -0.003543
      dz2     :    -0.002775  d :     0.003283
      dxz     :     0.005254
      dyz     :     0.002230
      dx2y2   :     0.000096
      dxy     :    -0.001522
  3 C s       :     0.008545  s :     0.008545
      pz      :     0.281283  p :     0.311118
      px      :     0.005655
      py      :     0.024180
      dz2     :    -0.000604  d :    -0.005168
      dxz     :    -0.002230
      dyz     :    -0.001085
      dx2y2   :    -0.000750
      dxy     :    -0.000500
  4 C s       :    -0.008548  s :    -0.008548
      pz      :    -0.114018  p :    -0.157156
      px      :    -0.022609
      py      :    -0.020529
      dz2     :     0.001567  d :     0.014985
      dxz     :     0.002271
      dyz     :     0.007831
      dx2y2   :     0.000921
      dxy     :     0.002396
  5 C s       :     0.018144  s :     0.018144
      pz      :     0.309588  p :     0.439447
      px      :     0.103491
      py      :     0.026368
      dz2     :    -0.000676  d :    -0.004087
      dxz     :    -0.000691
      dyz     :    -0.001477
      dx2y2   :    -0.000501
      dxy     :    -0.000742
  6 C s       :    -0.002243  s :    -0.002243
      pz      :    -0.004019  p :    -0.014429
      px      :    -0.007452
      py      :    -0.002958
      dz2     :     0.005191  d :     0.007726
      dxz     :     0.001016
      dyz     :     0.000529
      dx2y2   :     0.000830
      dxy     :     0.000159
  7 H s       :    -0.012745  s :    -0.012745
      pz      :     0.001964  p :     0.016366
      px      :     0.007255
      py      :     0.007146
  8 H s       :     0.001487  s :     0.001487
      pz      :     0.000009  p :    -0.000237
      px      :    -0.000165
      py      :    -0.000081
  9 H s       :    -0.009881  s :    -0.009881
      pz      :     0.007112  p :     0.009228
      px      :     0.000094
      py      :     0.002022
 10 H s       :     0.004901  s :     0.004901
      pz      :    -0.002724  p :    -0.004245
      px      :    -0.001042
      py      :    -0.000478
 11 H s       :    -0.013491  s :    -0.013491
      pz      :     0.007825  p :     0.012546
      px      :     0.002887
      py      :     0.001834
 12 H s       :     0.019999  s :     0.019999
      pz      :    -0.000450  p :    -0.000708
      px      :    -0.000154
      py      :    -0.000105
 13 H s       :     0.004259  s :     0.004259
      pz      :    -0.000180  p :    -0.000372
      px      :    -0.000170
      py      :    -0.000021


                      *****************************
                      * MAYER POPULATION ANALYSIS *
                      *****************************

  NA   - Mulliken gross atomic population
  ZA   - Total nuclear charge
  QA   - Mulliken gross atomic charge
  VA   - Mayer's total valence
  BVA  - Mayer's bonded valence
  FA   - Mayer's free valence

  ATOM       NA         ZA         QA         VA         BVA        FA
  0 O      8.2705     8.0000    -0.2705     2.0327     1.6623     0.3704
  1 O      8.2948     8.0000    -0.2948     2.0036     1.8996     0.1041
  2 C      5.9656     6.0000     0.0344     3.9933     3.9922     0.0010
  3 C      5.9892     6.0000     0.0108     3.7895     3.6605     0.1290
  4 C      5.9990     6.0000     0.0010     3.8332     3.7997     0.0335
  5 C      6.0596     6.0000    -0.0596     3.9355     3.7177     0.2179
  6 C      5.8967     6.0000     0.1033     3.7886     3.7876     0.0010
  7 H      0.8265     1.0000     0.1735     1.0074     1.0068     0.0005
  8 H      0.9619     1.0000     0.0381     0.9901     0.9901     0.0000
  9 H      0.9400     1.0000     0.0600     0.9906     0.9901     0.0005
 10 H      0.9622     1.0000     0.0378     0.9872     0.9871     0.0001
 11 H      0.9627     1.0000     0.0373     0.9880     0.9871     0.0010
 12 H      0.9477     1.0000     0.0523     0.9794     0.9788     0.0006
 13 H      0.9236     1.0000     0.0764     1.0195     1.0195     0.0000

  Mayer bond orders larger than 0.100000
B(  0-O ,  1-O ) :   0.4794 B(  0-O ,  7-H ) :   0.9826 B(  1-O ,  2-C ) :   0.9667 
B(  1-O ,  3-C ) :   0.3085 B(  1-O ,  5-C ) :   0.1185 B(  2-C ,  3-C ) :   0.9646 
B(  2-C ,  6-C ) :   1.0103 B(  2-C ,  8-H ) :   0.9530 B(  3-C ,  4-C ) :   1.2874 
B(  3-C ,  9-H ) :   0.9954 B(  4-C ,  5-C ) :   1.4837 B(  4-C , 10-H ) :   0.9931 
B(  5-C ,  6-C ) :   0.9980 B(  5-C , 11-H ) :   0.9773 B(  6-C , 12-H ) :   0.9226 
B(  6-C , 13-H ) :   0.9223 


------------------
HIRSHFELD ANALYSIS
------------------

Total integrated alpha density =     27.000017829
Total integrated beta density  =     26.000014829

  ATOM     CHARGE      SPIN    
   0 O   -0.247923    0.551878
   1 O   -0.154954   -0.174975
   2 C    0.053413    0.007926
   3 C    0.018159    0.236025
   4 C   -0.038584   -0.068579
   5 C    0.019757    0.354276
   6 C   -0.050616    0.018449
   7 H    0.144891    0.015122
   8 H    0.037209    0.002184
   9 H    0.055647    0.016529
  10 H    0.049361   -0.005385
  11 H    0.041433    0.022493
  12 H    0.032532    0.019052
  13 H    0.039644    0.005008

  TOTAL  -0.000033    1.000003

-------
TIMINGS
-------

Total SCF time: 0 days 0 hours 0 min 12 sec 

Total time                  ....      12.018 sec
Sum of individual times     ....      11.856 sec  ( 98.7%)

Fock matrix formation       ....      10.854 sec  ( 90.3%)
  Split-RI-J                ....       0.958 sec  (  8.8% of F)
  Chain of spheres X        ....       7.015 sec  ( 64.6% of F)
  XC integration            ....       2.765 sec  ( 25.5% of F)
    Basis function eval.    ....       0.728 sec  ( 26.3% of XC)
    Density eval.           ....       0.703 sec  ( 25.4% of XC)
    XC-Functional eval.     ....       0.254 sec  (  9.2% of XC)
    XC-Potential eval.      ....       0.845 sec  ( 30.6% of XC)
Diagonalization             ....       0.204 sec  (  1.7%)
Density matrix formation    ....       0.011 sec  (  0.1%)
Population analysis         ....       0.140 sec  (  1.2%)
Initial guess               ....       0.037 sec  (  0.3%)
Orbital Transformation      ....       0.000 sec  (  0.0%)
Orbital Orthonormalization  ....       0.000 sec  (  0.0%)
DIIS solution               ....       0.143 sec  (  1.2%)
Grid generation             ....       0.467 sec  (  3.9%)

Maximum memory used throughout the entire SCF-calculation: 50.8 MB


-------------------------------------------------------------------------------
                          DFT DISPERSION CORRECTION                            
                                                                               
                              DFTD3 V3.1  Rev 1                                
                          USING Becke-Johnson damping                          
-------------------------------------------------------------------------------
The PBE0 functional is recognized
Active option DFTDOPT                   ...         4   

molecular C6(AA) [au] = 1789.765089 


            DFT-D V3
 parameters
 s6 scaling factor         :     1.0000 
 a1 scaling factor         :     0.4145 
 s8 scaling factor         :     1.2177 
 a2 scaling factor         :     4.8593 
 ad hoc parameters k1-k3   :    16.0000     1.3333    -4.0000 

 Edisp/kcal,au: -6.440280308275  -0.010263238863 
 E6   /kcal   :  -4.092397382 
 E8   /kcal   :  -2.347882927 
 % E8         :  36.456222621 

-------------------------   ----------------
Dispersion correction           -0.010263239
-------------------------   ----------------


-------------------------   --------------------
FINAL SINGLE POINT ENERGY      -344.333971282378
-------------------------   --------------------



           ************************************************************
           *        Program running with 8 parallel MPI-processes     *
           *              working on a common directory               *
           ************************************************************
------------------------------------------------------------------------------
                         ORCA SCF GRADIENT CALCULATION
------------------------------------------------------------------------------

 ... reading COSX grid (gridx3)
Gradient of the Kohn-Sham DFT energy:
Kohn-Sham wavefunction type      ... UKS
Hartree-Fock exchange scaling    ...    0.250
Number of operators              ...    2
Number of atoms                  ...   14
Basis set dimensions             ...  133
Integral neglect threshold       ... 2.5e-11
Integral primitive cutoff        ... 2.5e-12
SHARK Integral package           ... ON

Nuc. rep. gradient       (SHARK) ... done (  0.0 sec)
HCore & Overlap gradient (SHARK) ... done (  0.0 sec)
RI-J gradient            (SHARK) ... done (  0.1 sec)
COSX-gradient                    ... done (  0.9 sec)
Exchange-correlation gradient    ... done
Dispersion correction            ... done

------------------
CARTESIAN GRADIENT
------------------

   1   O   :   -0.013575360   -0.010581017    0.002471739
   2   O   :    0.042508625   -0.011817692   -0.031973302
   3   C   :    0.011002576   -0.002309497    0.007303227
   4   C   :    0.011640999    0.000355022   -0.005757254
   5   C   :   -0.011635780    0.005387779    0.000836030
   6   C   :   -0.037791608    0.019575686    0.019916194
   7   C   :   -0.001103641    0.000087248    0.009786137
   8   H   :   -0.001584249   -0.001229539   -0.000530028
   9   H   :    0.001344733    0.000044078   -0.000889733
  10   H   :    0.000850594   -0.000018733   -0.000032314
  11   H   :    0.000225216    0.000415555   -0.000032748
  12   H   :   -0.000401240    0.000221978   -0.000503155
  13   H   :   -0.001709502    0.000929556    0.000364878
  14   H   :    0.000270829   -0.001065782   -0.000810786

Difference to translation invariance:
           :    0.0000421922   -0.0000053566    0.0001488846

Difference to rotation invariance:
           :    0.0003393586    0.0005224546   -0.0002709141

Norm of the cartesian gradient     ...    0.0781286584
RMS gradient                       ...    0.0120555137
MAX gradient                       ...    0.0425086251

-------
TIMINGS
-------

Total SCF gradient time            ...        1.745 sec

One electron gradient       ....       0.017 sec  (  1.0%)
RI-J Coulomb gradient       ....       0.125 sec  (  7.2%)
COSX gradient               ....       0.905 sec  ( 51.9%)
XC gradient                 ....       0.498 sec  ( 28.5%)

Maximum memory used throughout the entire SCFGRAD-calculation: 38.8 MB
------------------------------------------------------------------------------
                         ORCA GEOMETRY RELAXATION STEP
------------------------------------------------------------------------------

Reading the OPT-File                    .... done
Getting information on internals        .... done
Copying old internal coords+grads       .... done
Making the new internal coordinates     .... (new redundants).... done
Validating the new internal coordinates .... (new redundants).... done
Calculating the B-matrix                .... done
Calculating the G,G- and P matrices     .... done
[...]
      px      :     0.957907
      py      :     0.950593
      dz2     :     0.007823  d :     0.037906
      dxz     :     0.007208
      dyz     :     0.005601
      dx2y2   :     0.007798
      dxy     :     0.009476
  6 C s       :     2.932907  s :     2.932907
      pz      :     0.975111  p :     2.931410
      px      :     0.943957
      py      :     1.012342
      dz2     :     0.007823  d :     0.035604
      dxz     :     0.007891
      dyz     :     0.005665
      dx2y2   :     0.007110
      dxy     :     0.007115
  7 H s       :     0.785890  s :     0.785890
      pz      :     0.021321  p :     0.067871
      px      :     0.013881
      py      :     0.032668
  8 H s       :     0.928673  s :     0.928673
      pz      :     0.002441  p :     0.022284
      px      :     0.014839
      py      :     0.005004
  9 H s       :     0.934930  s :     0.934930
      pz      :     0.007264  p :     0.022589
      px      :     0.003268
      py      :     0.012058
 10 H s       :     0.936779  s :     0.936779
      pz      :     0.007846  p :     0.024386
      px      :     0.011906
      py      :     0.004633
 11 H s       :     0.940254  s :     0.940254
      pz      :     0.004747  p :     0.023500
      px      :     0.009934
      py      :     0.008819
 12 H s       :     0.909794  s :     0.909794
      pz      :     0.013137  p :     0.023306
      px      :     0.004389
      py      :     0.005781
 13 H s       :     0.903362  s :     0.903362
      pz      :     0.004255  p :     0.023302
      px      :     0.005911
      py      :     0.013136

SPIN
  0 O s       :     0.011814  s :     0.011814
      pz      :     0.132604  p :     0.826151
      px      :     0.669916
      py      :     0.023631
      dz2     :     0.000062  d :     0.000395
      dxz     :     0.000173
      dyz     :     0.000015
      dx2y2   :    -0.000075
      dxy     :     0.000220
  1 O s       :     0.017916  s :     0.017916
      pz      :     0.035627  p :     0.136045
      px      :     0.087545
      py      :     0.012873
      dz2     :    -0.000211  d :     0.001054
      dxz     :     0.000711
      dyz     :     0.000029
      dx2y2   :     0.000308
      dxy     :     0.000219
  2 C s       :    -0.002375  s :    -0.002375
      pz      :    -0.006151  p :    -0.010168
      px      :    -0.002288
      py      :    -0.001728
      dz2     :     0.000195  d :     0.001416
      dxz     :     0.000947
      dyz     :    -0.000001
      dx2y2   :     0.000057
      dxy     :     0.000218
  3 C s       :     0.000140  s :     0.000140
      pz      :     0.003494  p :     0.005574
      px      :     0.000522
      py      :     0.001557
      dz2     :     0.000058  d :     0.001198
      dxz     :    -0.000004
      dyz     :     0.000019
      dx2y2   :     0.001281
      dxy     :    -0.000156
  4 C s       :    -0.003093  s :    -0.003093
      pz      :    -0.009487  p :    -0.014506
      px      :     0.003068
      py      :    -0.008088
      dz2     :     0.000101  d :     0.000404
      dxz     :     0.000077
      dyz     :     0.000032
      dx2y2   :     0.000124
      dxy     :     0.000070
  5 C s       :     0.005240  s :     0.005240
      pz      :     0.015659  p :     0.032938
      px      :     0.004120
      py      :     0.013159
      dz2     :    -0.000038  d :    -0.000162
      dxz     :    -0.000018
      dyz     :    -0.000067
      dx2y2   :    -0.000042
      dxy     :     0.000003
  6 C s       :    -0.000394  s :    -0.000394
      pz      :     0.000484  p :     0.000691
      px      :    -0.000808
      py      :     0.001015
      dz2     :    -0.000012  d :     0.000097
      dxz     :     0.000042
      dyz     :     0.000006
      dx2y2   :     0.000004
      dxy     :     0.000057
  7 H s       :    -0.025218  s :    -0.025218
      pz      :     0.000495  p :     0.005828
      px      :     0.005116
      py      :     0.000217
  8 H s       :     0.005626  s :     0.005626
      pz      :    -0.000040  p :    -0.000095
      px      :    -0.000046
      py      :    -0.000009
  9 H s       :     0.004632  s :     0.004632
      pz      :    -0.000019  p :    -0.000034
      px      :    -0.000012
      py      :    -0.000003
 10 H s       :     0.001097  s :     0.001097
      pz      :    -0.000009  p :    -0.000068
      px      :    -0.000008
      py      :    -0.000052
 11 H s       :    -0.002454  s :    -0.002454
      pz      :     0.000115  p :     0.000235
      px      :     0.000035
      py      :     0.000085
 12 H s       :    -0.000012  s :    -0.000012
      pz      :    -0.000003  p :     0.000032
      px      :     0.000024
      py      :     0.000011
 13 H s       :     0.000064  s :     0.000064
      pz      :    -0.000001  p :    -0.000008
      px      :    -0.000006
      py      :    -0.000001


                     *******************************
                     * LOEWDIN POPULATION ANALYSIS *
                     *******************************

-------------------------------------------
LOEWDIN ATOMIC CHARGES AND SPIN POPULATIONS
-------------------------------------------
   0 O :   -0.194283    0.790680
   1 O :   -0.057323    0.175123
   2 C :    0.056690   -0.004768
   3 C :    0.049337    0.008223
   4 C :   -0.054713   -0.011153
   5 C :   -0.000300    0.029090
   6 C :   -0.045897    0.001370
   7 H :    0.033985    0.005201
   8 H :    0.024212    0.003107
   9 H :    0.025144    0.002714
  10 H :    0.036078    0.000372
  11 H :    0.028587   -0.000163
  12 H :    0.046064    0.000169
  13 H :    0.052418    0.000033

----------------------------------------------------
LOEWDIN REDUCED ORBITAL CHARGES AND SPIN POPULATIONS
----------------------------------------------------
CHARGE
  0 O s       :     3.679009  s :     3.679009
      pz      :     1.748669  p :     4.501015
      px      :     1.297697
      py      :     1.454649
      dz2     :     0.001953  d :     0.014258
      dxz     :     0.001264
      dyz     :     0.002388
      dx2y2   :     0.008224
      dxy     :     0.000430
  1 O s       :     3.548386  s :     3.548386
      pz      :     1.409950  p :     4.470007
      px      :     1.571662
      py      :     1.488395
      dz2     :     0.009978  d :     0.038930
      dxz     :     0.005622
      dyz     :     0.010756
      dx2y2   :     0.005717
      dxy     :     0.006857
  2 C s       :     2.852310  s :     2.852310
      pz      :     0.870410  p :     2.922891
      px      :     1.051096
      py      :     1.001384
      dz2     :     0.044721  d :     0.168109
      dxz     :     0.040002
      dyz     :     0.044405
      dx2y2   :     0.016218
      dxy     :     0.022762
  3 C s       :     2.857747  s :     2.857747
      pz      :     1.022103  p :     2.933512
      px      :     0.992841
      py      :     0.918568
      dz2     :     0.018466  d :     0.159403
      dxz     :     0.026856
      dyz     :     0.028968
      dx2y2   :     0.043613
      dxy     :     0.041500
  4 C s       :     2.874461  s :     2.874461
      pz      :     1.035818  p :     3.089688
      px      :     1.019664
      py      :     1.034206
      dz2     :     0.012752  d :     0.090565
      dxz     :     0.020590
      dyz     :     0.013768
      dx2y2   :     0.022219
      dxy     :     0.021235
  5 C s       :     2.878944  s :     2.878944
      pz      :     0.996278  p :     3.028215
      px      :     1.002452
      py      :     1.029485
      dz2     :     0.016231  d :     0.093142
      dxz     :     0.018559
      dyz     :     0.015084
      dx2y2   :     0.020097
      dxy     :     0.023171
  6 C s       :     2.837548  s :     2.837548
      pz      :     1.036840  p :     3.115756
      px      :     1.025520
      py      :     1.053396
      dz2     :     0.020500  d :     0.092593
      dxz     :     0.021211
      dyz     :     0.014119
      dx2y2   :     0.018700
      dxy     :     0.018062
  7 H s       :     0.781376  s :     0.781376
      pz      :     0.055421  p :     0.184640
      px      :     0.035851
      py      :     0.093368
  8 H s       :     0.904221  s :     0.904221
      pz      :     0.010921  p :     0.071567
      px      :     0.043702
      py      :     0.016944
  9 H s       :     0.904655  s :     0.904655
      pz      :     0.022418  p :     0.070201
      px      :     0.013020
      py      :     0.034763
 10 H s       :     0.892597  s :     0.892597
      pz      :     0.022602  p :     0.071325
      px      :     0.034917
      py      :     0.013806
 11 H s       :     0.901960  s :     0.901960
      pz      :     0.015110  p :     0.069453
      px      :     0.029880
      py      :     0.024462
 12 H s       :     0.887072  s :     0.887072
      pz      :     0.037387  p :     0.066864
      px      :     0.013173
      py      :     0.016304
 13 H s       :     0.880016  s :     0.880016
      pz      :     0.012294  p :     0.067566
      px      :     0.017765
      py      :     0.037507

SPIN
  0 O s       :     0.013228  s :     0.013228
      pz      :     0.125384  p :     0.777161
      px      :     0.636272
      py      :     0.015505
      dz2     :    -0.000043  d :     0.000292
      dxz     :     0.000279
      dyz     :    -0.000091
      dx2y2   :     0.000103
      dxy     :     0.000045
  1 O s       :     0.025330  s :     0.025330
      pz      :     0.037981  p :     0.148303
      px      :     0.099297
      py      :     0.011024
      dz2     :    -0.000210  d :     0.001491
      dxz     :     0.000937
      dyz     :     0.000030
      dx2y2   :     0.000478
      dxy     :     0.000256
  2 C s       :    -0.001141  s :    -0.001141
      pz      :    -0.003968  p :    -0.007238
      px      :    -0.001076
      py      :    -0.002194
      dz2     :     0.000784  d :     0.003611
      dxz     :     0.002233
      dyz     :    -0.000043
      dx2y2   :     0.000195
      dxy     :     0.000443
  3 C s       :     0.000081  s :     0.000081
      pz      :     0.003465  p :     0.005845
      px      :     0.000364
      py      :     0.002016
      dz2     :     0.000001  d :     0.002296
      dxz     :     0.000009
      dyz     :     0.000170
      dx2y2   :     0.002313
      dxy     :    -0.000196
  4 C s       :    -0.000054  s :    -0.000054
      pz      :    -0.006940  p :    -0.012201
      px      :     0.001504
      py      :    -0.006765
      dz2     :     0.000212  d :     0.001102
      dxz     :     0.000161
      dyz     :     0.000058
      dx2y2   :     0.000483
      dxy     :     0.000188
  5 C s       :     0.001442  s :     0.001442
      pz      :     0.014103  p :     0.027967
      px      :     0.004165
      py      :     0.009699
      dz2     :    -0.000136  d :    -0.000320
      dxz     :     0.000025
      dyz     :    -0.000089
      dx2y2   :    -0.000078
      dxy     :    -0.000042
  6 C s       :     0.000211  s :     0.000211
      pz      :     0.000316  p :     0.000897
      px      :    -0.000145
      py      :     0.000726
      dz2     :     0.000008  d :     0.000262
      dxz     :     0.000116
      dyz     :     0.000019
      dx2y2   :     0.000001
      dxy     :     0.000118
  7 H s       :    -0.017500  s :    -0.017500
      pz      :     0.003242  p :     0.022701
      px      :     0.016890
      py      :     0.002570
  8 H s       :     0.003346  s :     0.003346
      pz      :    -0.000134  p :    -0.000239
      px      :    -0.000007
      py      :    -0.000097
  9 H s       :     0.002634  s :     0.002634
      pz      :     0.000168  p :     0.000081
      px      :     0.000023
      py      :    -0.000111
 10 H s       :     0.000628  s :     0.000628
      pz      :    -0.000130  p :    -0.000256
      px      :     0.000034
      py      :    -0.000160
 11 H s       :    -0.001103  s :    -0.001103
      pz      :     0.000428  p :     0.000940
      px      :     0.000190
      py      :     0.000322
 12 H s       :     0.000055  s :     0.000055
      pz      :     0.000015  p :     0.000114
      px      :     0.000058
      py      :     0.000041
 13 H s       :     0.000040  s :     0.000040
      pz      :     0.000013  p :    -0.000007
      px      :    -0.000018
      py      :    -0.000001


                      *****************************
                      * MAYER POPULATION ANALYSIS *
                      *****************************

  NA   - Mulliken gross atomic population
  ZA   - Total nuclear charge
  QA   - Mulliken gross atomic charge
  VA   - Mayer's total valence
  BVA  - Mayer's bonded valence
  FA   - Mayer's free valence

  ATOM       NA         ZA         QA         VA         BVA        FA
  0 O      8.2785     8.0000    -0.2785     2.0016     1.3366     0.6650
  1 O      8.2620     8.0000    -0.2620     2.1070     2.0800     0.0270
  2 C      5.9746     6.0000     0.0254     3.9660     3.9660     0.0001
  3 C      5.9291     6.0000     0.0709     3.9003     3.9002     0.0001
  4 C      5.9784     6.0000     0.0216     3.7999     3.7996     0.0003
  5 C      6.1306     6.0000    -0.1306     3.9898     3.9888     0.0010
  6 C      5.8999     6.0000     0.1001     3.8206     3.8206     0.0000
  7 H      0.8538     1.0000     0.1462     1.0203     1.0192     0.0010
  8 H      0.9510     1.0000     0.0490     1.0177     1.0176     0.0000
  9 H      0.9575     1.0000     0.0425     0.9905     0.9905     0.0000
 10 H      0.9612     1.0000     0.0388     0.9899     0.9899     0.0000
 11 H      0.9638     1.0000     0.0362     0.9881     0.9881     0.0000
 12 H      0.9331     1.0000     0.0669     0.9801     0.9801     0.0000
 13 H      0.9267     1.0000     0.0733     0.9830     0.9830     0.0000

  Mayer bond orders larger than 0.100000
B(  0-O ,  1-O ) :   0.2162 B(  0-O ,  7-H ) :   1.0026 B(  1-O ,  2-C ) :   0.8989 
B(  1-O ,  3-C ) :   0.8953 B(  2-C ,  3-C ) :   1.0120 B(  2-C ,  6-C ) :   1.0057 
B(  2-C ,  8-H ) :   0.9621 B(  3-C ,  4-C ) :   0.9809 B(  3-C ,  9-H ) :   0.9772 
B(  4-C ,  5-C ) :   1.8309 B(  4-C , 10-H ) :   0.9955 B(  5-C ,  6-C ) :   1.0244 
B(  5-C , 11-H ) :   0.9674 B(  6-C , 12-H ) :   0.9257 B(  6-C , 13-H ) :   0.9204 



------------------
HIRSHFELD ANALYSIS
------------------

Total integrated alpha density =     26.999985418
Total integrated beta density  =     25.999984152

  ATOM     CHARGE      SPIN    
   0 O   -0.285125    0.766769
   1 O   -0.098248    0.171412
   2 C    0.054759    0.000690
   3 C    0.044131    0.010273
   4 C   -0.051105   -0.004724
   5 C   -0.019102    0.024169
   6 C   -0.038072    0.003091
   7 H    0.121011    0.021154
   8 H    0.048360    0.002789
   9 H    0.050248    0.002301
  10 H    0.048618   -0.000115
  11 H    0.036949    0.001494
  12 H    0.041012    0.000505
  13 H    0.046597    0.000195

  TOTAL   0.000030    1.000001

-------
TIMINGS
-------

Total SCF time: 0 days 0 hours 0 min 4 sec 

Total time                  ....       4.768 sec
Sum of individual times     ....       4.623 sec  ( 97.0%)

Fock matrix formation       ....       3.942 sec  ( 82.7%)
  Split-RI-J                ....       0.350 sec  (  8.9% of F)
  Chain of spheres X        ....       2.857 sec  ( 72.5% of F)
  XC integration            ....       0.712 sec  ( 18.1% of F)
    Basis function eval.    ....       0.208 sec  ( 29.2% of XC)
    Density eval.           ....       0.188 sec  ( 26.4% of XC)
    XC-Functional eval.     ....       0.071 sec  (  9.9% of XC)
    XC-Potential eval.      ....       0.161 sec  ( 22.7% of XC)
Diagonalization             ....       0.057 sec  (  1.2%)
Density matrix formation    ....       0.004 sec  (  0.1%)
Population analysis         ....       0.150 sec  (  3.1%)
Initial guess               ....       0.008 sec  (  0.2%)
Orbital Transformation      ....       0.000 sec  (  0.0%)
Orbital Orthonormalization  ....       0.004 sec  (  0.1%)
DIIS solution               ....       0.034 sec  (  0.7%)
Grid generation             ....       0.428 sec  (  9.0%)

Maximum memory used throughout the entire SCF-calculation: 50.7 MB


-------------------------------------------------------------------------------
                          DFT DISPERSION CORRECTION                            
                                                                               
                              DFTD3 V3.1  Rev 1                                
                          USING Becke-Johnson damping                          
-------------------------------------------------------------------------------
The PBE0 functional is recognized
Active option DFTDOPT                   ...         4   

molecular C6(AA) [au] = 1733.703425 


            DFT-D V3
 parameters
 s6 scaling factor         :     1.0000 
 a1 scaling factor         :     0.4145 
 s8 scaling factor         :     1.2177 
 a2 scaling factor         :     4.8593 
 ad hoc parameters k1-k3   :    16.0000     1.3333    -4.0000 

 Edisp/kcal,au: -6.207220580526  -0.009891834586 
 E6   /kcal   :  -3.949432145 
 E8   /kcal   :  -2.257788436 
 % E8         :  36.373581484 

-------------------------   ----------------
Dispersion correction           -0.009891835
-------------------------   ----------------


-------------------------   --------------------
FINAL SINGLE POINT ENERGY      -344.356981513819
-------------------------   --------------------

                                *** OPTIMIZATION RUN DONE ***

                            ***************************************
                            *     ORCA property calculations      *
                            ***************************************

                                    ---------------------
                                    Active property flags
                                    ---------------------
   (+) Dipole Moment


------------------------------------------------------------------------------
                       ORCA ELECTRIC PROPERTIES CALCULATION
------------------------------------------------------------------------------

Dipole Moment Calculation                       ... on
Quadrupole Moment Calculation                   ... off
Polarizability Calculation                      ... off
GBWName                                         ... path_opt4_orca.gbw
Electron density                                ... path_opt4_orca.scfp
The origin for moment calculation is the CENTER OF MASS  = (-0.286639, -0.133923  0.446369)

-------------
DIPOLE MOMENT
-------------
                                X             Y             Z
Electronic contribution:     -0.63748       0.12244       1.87482
Nuclear contribution   :      1.29957       0.82046      -2.62891
                        -----------------------------------------
Total Dipole Moment    :      0.66209       0.94290      -0.75409
                        -----------------------------------------
Magnitude (a.u.)       :      1.37698
Magnitude (Debye)      :      3.50000



--------------------
Rotational spectrum 
--------------------
 
Rotational constants in cm-1:     0.189948     0.073594     0.062910 
Rotational constants in MHz :  5694.504142  2206.299184  1885.988253 

 Dipole components along the rotational axes: 
x,y,z [a.u.] :    -0.971318     0.241539    -0.945657 
x,y,z [Debye]:    -2.468895     0.613943    -2.403670 

 

Timings for individual modules:

Sum of individual times         ...      462.268 sec (=   7.704 min)
GTO integral calculation        ...       17.574 sec (=   0.293 min)   3.8 %
SCF iterations                  ...      357.677 sec (=   5.961 min)  77.4 %
SCF Gradient evaluation         ...       85.843 sec (=   1.431 min)  18.6 %
Geometry relaxation             ...        1.174 sec (=   0.020 min)   0.3 %
                             ****ORCA TERMINATED NORMALLY****
TOTAL RUN TIME: 0 days 0 hours 7 minutes 57 seconds 145 msec
