
                                 *****************
                                 * O   R   C   A *
                                 *****************

                                            #,                                       
                                            ###                                      
                                            ####                                     
                                            #####                                    
                                            ######                                   
                                           ########,                                 
                                     ,,################,,,,,                         
                               ,,#################################,,                 
                          ,,##########################################,,             
                       ,#########################################, ''#####,          
                    ,#############################################,,   '####,        
                  ,##################################################,,,,####,       
                ,###########''''           ''''###############################       
              ,#####''   ,,,,##########,,,,          '''####'''          '####       
            ,##' ,,,,###########################,,,                        '##       
           ' ,,###''''                  '''############,,,                           
         ,,##''                                '''############,,,,        ,,,,,,###''
      ,#''                                            '''#######################'''  
     '                                                          ''''####''''         
             ,#######,   #######,   ,#######,      ##                                
            ,#'     '#,  ##    ##  ,#'     '#,    #''#        ######   ,####,        
            ##       ##  ##   ,#'  ##            #'  '#       #        #'  '#        
            ##       ##  #######   ##           ,######,      #####,   #    #        
            '#,     ,#'  ##    ##  '#,     ,#' ,#      #,         ##   #,  ,#        
             '#######'   ##     ##  '#######'  #'      '#     #####' # '####'        



                  #######################################################
                  #                        -***-                        #
                  #          Department of theory and spectroscopy      #
                  #    Directorship and core code : Frank Neese         #
                  #        Max Planck Institute fuer Kohlenforschung    #
                  #                Kaiser Wilhelm Platz 1               #
                  #                 D-45470 Muelheim/Ruhr               #
                  #                      Germany                        #
                  #                                                     #
                  #                  All rights reserved                #
                  #                        -***-                        #
                  #######################################################


                         Program Version 5.0.4 -  RELEASE  -


 With contributions from (in alphabetic order):
   Daniel Aravena         : Magnetic Suceptibility
   Michael Atanasov       : Ab Initio Ligand Field Theory (pilot matlab implementation)
   Alexander A. Auer      : GIAO ZORA, VPT2 properties, NMR spectrum
   Ute Becker             : Parallelization
   Giovanni Bistoni       : ED, misc. LED, open-shell LED, HFLD
   Martin Brehm           : Molecular dynamics
   Dmytro Bykov           : SCF Hessian
   Vijay G. Chilkuri      : MRCI spin determinant printing, contributions to CSF-ICE
   Dipayan Datta          : RHF DLPNO-CCSD density
   Achintya Kumar Dutta   : EOM-CC, STEOM-CC
   Dmitry Ganyushin       : Spin-Orbit,Spin-Spin,Magnetic field MRCI
   Miquel Garcia          : C-PCM and meta-GGA Hessian, CC/C-PCM, Gaussian charge scheme
   Yang Guo               : DLPNO-NEVPT2, F12-NEVPT2, CIM, IAO-localization
   Andreas Hansen         : Spin unrestricted coupled pair/coupled cluster methods
   Benjamin Helmich-Paris : MC-RPA, TRAH-SCF, COSX integrals
   Lee Huntington         : MR-EOM, pCC
   Robert Izsak           : Overlap fitted RIJCOSX, COSX-SCS-MP3, EOM
   Marcus Kettner         : VPT2
   Christian Kollmar      : KDIIS, OOCD, Brueckner-CCSD(T), CCSD density, CASPT2, CASPT2-K
   Simone Kossmann        : Meta GGA functionals, TD-DFT gradient, OOMP2, MP2 Hessian
   Martin Krupicka        : Initial AUTO-CI
   Lucas Lang             : DCDCAS
   Marvin Lechner         : AUTO-CI (C++ implementation), FIC-MRCC
   Dagmar Lenk            : GEPOL surface, SMD
   Dimitrios Liakos       : Extrapolation schemes; Compound Job, initial MDCI parallelization
   Dimitrios Manganas     : Further ROCIS development; embedding schemes
   Dimitrios Pantazis     : SARC Basis sets
   Anastasios Papadopoulos: AUTO-CI, single reference methods and gradients
   Taras Petrenko         : DFT Hessian,TD-DFT gradient, ASA, ECA, R-Raman, ABS, FL, XAS/XES, NRVS
   Peter Pinski           : DLPNO-MP2, DLPNO-MP2 Gradient
   Christoph Reimann      : Effective Core Potentials
   Marius Retegan         : Local ZFS, SOC
   Christoph Riplinger    : Optimizer, TS searches, QM/MM, DLPNO-CCSD(T), (RO)-DLPNO pert. Triples
   Tobias Risthaus        : Range-separated hybrids, TD-DFT gradient, RPA, STAB
   Michael Roemelt        : Original ROCIS implementation
   Masaaki Saitow         : Open-shell DLPNO-CCSD energy and density
   Barbara Sandhoefer     : DKH picture change effects
   Avijit Sen             : IP-ROCIS
   Kantharuban Sivalingam : CASSCF convergence, NEVPT2, FIC-MRCI
   Bernardo de Souza      : ESD, SOC TD-DFT
   Georgi Stoychev        : AutoAux, RI-MP2 NMR, DLPNO-MP2 response
   Willem Van den Heuvel  : Paramagnetic NMR
   Boris Wezisla          : Elementary symmetry handling
   Frank Wennmohs         : Technical directorship


 We gratefully acknowledge several colleagues who have allowed us to
 interface, adapt or use parts of their codes:
   Stefan Grimme, W. Hujo, H. Kruse, P. Pracht,  : VdW corrections, initial TS optimization,
                  C. Bannwarth, S. Ehlert          DFT functionals, gCP, sTDA/sTD-DF
   Ed Valeev, F. Pavosevic, A. Kumar             : LibInt (2-el integral package), F12 methods
   Garnet Chan, S. Sharma, J. Yang, R. Olivares  : DMRG
   Ulf Ekstrom                                   : XCFun DFT Library
   Mihaly Kallay                                 : mrcc  (arbitrary order and MRCC methods)
   Jiri Pittner, Ondrej Demel                    : Mk-CCSD
   Frank Weinhold                                : gennbo (NPA and NBO analysis)
   Christopher J. Cramer and Donald G. Truhlar   : smd solvation model
   Lars Goerigk                                  : TD-DFT with DH, B97 family of functionals
   V. Asgeirsson, H. Jonsson                     : NEB implementation
   FAccTs GmbH                                   : IRC, NEB, NEB-TS, DLPNO-Multilevel, CI-OPT
                                                   MM, QMMM, 2- and 3-layer-ONIOM, Crystal-QMMM,
                                                   LR-CPCM, SF, NACMEs, symmetry and pop. for TD-DFT,
                                                   nearIR, NL-DFT gradient (VV10), updates on ESD,
                                                   ML-optimized integration grids
   S Lehtola, MJT Oliveira, MAL Marques          : LibXC Library
   Liviu Ungur et al                             : ANISO software


 Your calculation uses the libint2 library for the computation of 2-el integrals
 For citations please refer to: http://libint.valeyev.net

 Your ORCA version has been built with support for libXC version: 5.1.0
 For citations please refer to: https://tddft.org/programs/libxc/

 This ORCA versions uses:
   CBLAS   interface :  Fast vector & matrix operations
   LAPACKE interface :  Fast linear algebra routines
   SCALAPACK package :  Parallel linear algebra routines
   Shared memory     :  Shared parallel matrices
   BLAS/LAPACK       :  OpenBLAS 0.3.15  USE64BITINT DYNAMIC_ARCH NO_AFFINITY SkylakeX SINGLE_THREADED
        Core in use  :  SkylakeX
   Copyright (c) 2011-2014, The OpenBLAS Project


Your calculation utilizes the atom-pairwise dispersion correction
with the Becke-Johnson damping scheme (D3BJ)
Cite in your paper:
S.Grimme, S.Ehrlich, L.Goerigk, J Comput Chem, (2011), 32, 1456–1465 
S.Grimme, J.Antony, S.Ehrlich and H.Krieg, J.Chem.Phys., 132, (2010), 154104 
   

================================================================================

----- Orbital basis set information -----
Your calculation utilizes the basis: def2-SVP
   F. Weigend and R. Ahlrichs, Phys. Chem. Chem. Phys. 7, 3297 (2005).

----- AuxJ basis set information -----
Your calculation utilizes the auxiliary basis: def2/J
   F. Weigend, Phys. Chem. Chem. Phys. 8, 1057 (2006).

================================================================================
                                        WARNINGS
                       Please study these warnings very carefully!
================================================================================


WARNING: your system is open-shell and RHF/RKS was chosen
  ===> : WILL SWITCH to UHF/UKS


WARNING: Geometry Optimization
  ===> : Switching off AutoStart
         For restart on a previous wavefunction, please use MOREAD

INFO   : the flag for use of the SHARK integral package has been found!

================================================================================
                                       INPUT FILE
================================================================================
NAME = path_opt5_orca.inp
|  1> ! LooseOpt PBE0 RIJCOSX D3BJ def2-SVP def2/J 
|  2> %geom Constraints
|  3> { B 1 5 2.3398157440521055 C }
|  4> { B 0 1 2.20271538054999 C }
|  5>     end
|  6> end
|  7> %geom MaxIter 50 end
|  8> %output 
|  9> xyzfile=True 
| 10> end 
| 11> %scf 
| 12> maxiter 250 
| 13> end
| 14> %output
| 15> Print[P_Hirshfeld] = 1
| 16> end
| 17> % maxcore
| 18> 4000
| 19> %pal nprocs 8
| 20> end
| 21> *xyz 0 2
| 22> O   -2.23080625  -0.41281512   1.73449051 
| 23> O   -0.53916175  -0.28057517   0.87357397 
| 24> C   -0.73642627   0.24150026  -0.40558724 
| 25> C    0.17843659   0.91333141   0.54719929 
| 26> C    1.53655083   0.41034767   0.28249885 
| 27> C    1.35836075  -0.62173563  -0.54486417 
| 28> C    0.07073529  -0.63709398  -1.30495871 
| 29> H   -2.23101737   0.52063771   2.00119073 
| 30> H   -1.74833996   0.59400483  -0.62573184 
| 31> H   -0.08238489   1.81450057   1.10894287 
| 32> H    2.43694551   0.66388733   0.84044283 
| 33> H    2.16010987  -1.32175750  -0.80091064 
| 34> H    0.21410469  -0.24800776  -2.32731533 
| 35> H   -0.38710704  -1.63612463  -1.37897114 
| 36> *
| 37> 
| 38>                          ****END OF INPUT****
================================================================================

                       *****************************
                       * Geometry Optimization Run *
                       *****************************

Geometry optimization settings:
Update method            Update   .... BFGS
Choice of coordinates    CoordSys .... Z-matrix Internals
Initial Hessian          InHess   .... Almoef's Model

Convergence Tolerances:
Energy Change            TolE     ....  3.0000e-05 Eh
Max. Gradient            TolMAXG  ....  2.0000e-03 Eh/bohr
RMS Gradient             TolRMSG  ....  5.0000e-04 Eh/bohr
Max. Displacement        TolMAXD  ....  1.0000e-02 bohr
RMS Displacement         TolRMSD  ....  7.0000e-03 bohr
Strict Convergence                ....  False
------------------------------------------------------------------------------
                        ORCA OPTIMIZATION COORDINATE SETUP
------------------------------------------------------------------------------

The optimization will be done in new redundant internal coordinates
Making redundant internal coordinates   ...  (new redundants) done
Evaluating the initial hessian          ...  (Almloef) done
Evaluating the coordinates              ...  done
Calculating the B-matrix                .... done
Calculating the G-matrix                .... done
Diagonalizing the G-matrix              .... done
Imposing constraints:
 Iter   0:  RMS(Cart)=    0.0354924750 RMS(Int)=    0.2607928365
 Iter   1:  RMS(Cart)=    0.0378444607 RMS(Int)=    0.1183747724
 Iter   2:  RMS(Cart)=    0.0324827862 RMS(Int)=    0.0037718458
 Iter   3:  RMS(Cart)=    0.0006791367 RMS(Int)=    0.0014042705
 Iter   4:  RMS(Cart)=    0.0002509908 RMS(Int)=    0.0005228582
 Iter   5:  RMS(Cart)=    0.0000934566 RMS(Int)=    0.0001946785
 Iter   6:  RMS(Cart)=    0.0000347976 RMS(Int)=    0.0000724857
 Iter   7:  RMS(Cart)=    0.0000129565 RMS(Int)=    0.0000269890
 Iter   8:  RMS(Cart)=    0.0000048242 RMS(Int)=    0.0000100490
 Iter   9:  RMS(Cart)=    0.0000017962 RMS(Int)=    0.0000037416
 Iter  10:  RMS(Cart)=    0.0000006688 RMS(Int)=    0.0000013931
 Iter  11:  RMS(Cart)=    0.0000002490 RMS(Int)=    0.0000005187
 Iter  12:  RMS(Cart)=    0.0000000927 RMS(Int)=    0.0000001931
 Iter  13:  RMS(Cart)=    0.0000000345 RMS(Int)=    0.0000000719
CONVERGED
The first mode is                       ....   53
The number of degrees of freedom        ....   36
Storing new coordinates                 .... done

    -----------------------------------------------------------------
                    Redundant Internal Coordinates


    -----------------------------------------------------------------
         Definition                    Initial Value    Approx d2E/dq
    -----------------------------------------------------------------
      1. B(O   1,O   0)                  2.2027         0.076209 C 
      2. B(C   2,O   1)                  1.3904         0.548181   
      3. B(C   3,O   1)                  1.4249         0.481896   
      4. B(C   3,C   2)                  1.4826         0.445719   
      5. B(C   4,C   3)                  1.4581         0.461856   
      6. B(C   5,O   1)                  2.3398         0.014022 C 
      7. B(C   5,C   4)                  1.3272         0.765481   
      8. B(C   6,C   2)                  1.4816         0.426254   
      9. B(C   6,C   5)                  1.4879         0.424345   
     10. B(H   7,O   0)                  0.9708         0.499721   
     11. B(H   8,C   2)                  1.0940         0.354933   
     12. B(H   9,C   3)                  1.0935         0.355531   
     13. B(H  10,C   4)                  1.0892         0.361198   
     14. B(H  11,C   5)                  1.0948         0.353922   
     15. B(H  12,C   6)                  1.1034         0.342994   
     16. B(H  13,C   6)                  1.1015         0.345286   
     17. A(O   1,O   0,H   7)           93.3167         0.260897   
     18. A(O   0,O   1,C   3)          127.0247         0.286807   
     19. A(O   0,O   1,C   2)          107.8663         0.292662   
     20. A(C   2,O   1,C   3)           63.5387         0.400784   
     21. A(C   3,C   2,H   8)          123.5834         0.333114   
     22. A(O   1,C   2,C   6)          104.1111         0.394761   
     23. A(O   1,C   2,C   3)           59.3634         0.397867   
     24. A(C   3,C   2,C   6)          108.9483         0.383192   
     25. A(C   6,C   2,H   8)          124.5501         0.330659   
     26. A(O   1,C   2,H   8)          116.3702         0.342713   
     27. A(C   4,C   3,H   9)          126.4574         0.335181   
     28. A(O   1,C   3,C   2)           57.0979         0.388987   
     29. A(O   1,C   3,C   4)          101.8607         0.391412   
     30. A(C   2,C   3,H   9)          123.7977         0.333207   
     31. A(C   2,C   3,C   4)          107.5325         0.388582   
     32. A(O   1,C   3,H   9)          117.3123         0.335513   
     33. A(C   3,C   4,C   5)          103.7754         0.427592   
     34. A(C   3,C   4,H  10)          126.5874         0.336063   
     35. A(C   5,C   4,H  10)          127.8173         0.365996   
     36. A(C   4,C   5,C   6)          117.1593         0.421162   
     37. A(C   4,C   5,H  11)          122.1839         0.364723   
     38. A(C   6,C   5,H  11)          119.7260         0.330258   
     39. A(C   2,C   6,C   5)           97.8780         0.379938   
     40. A(C   2,C   6,H  12)          115.3307         0.328795   
     41. A(C   5,C   6,H  12)          111.3229         0.328551   
     42. A(C   2,C   6,H  13)          110.4869         0.329157   
     43. A(C   5,C   6,H  13)          113.7253         0.328913   
     44. A(H  12,C   6,H  13)          108.0140         0.286739   
     45. D(C   2,O   1,O   0,H   7)    -82.3982         0.001890   
     46. D(C   3,O   1,O   0,H   7)    -12.4752         0.001890   
     47. D(C   6,C   2,O   1,C   3)    103.9011         0.027942   
     48. D(C   3,C   2,O   1,O   0)    123.1112         0.027942   
     49. D(C   6,C   2,O   1,O   0)   -132.9877         0.027942   
     50. D(H   8,C   2,O   1,O   0)      8.0278         0.027942   
     51. D(H   8,C   2,O   1,C   3)   -115.0833         0.027942   
     52. D(C   4,C   3,C   2,C   6)     -2.5239         0.015694   
     53. D(C   2,C   3,O   1,O   0)    -93.0862         0.021320   
     54. D(H   9,C   3,C   2,C   6)    161.4997         0.015694   
     55. D(H   9,C   3,O   1,C   2)    114.3023         0.021320   
     56. D(C   4,C   3,C   2,O   1)     92.9996         0.015694   
     57. D(C   4,C   3,C   2,H   8)   -163.9148         0.015694   
     58. D(H   9,C   3,C   2,O   1)   -102.9768         0.015694   
     59. D(H   9,C   3,O   1,O   0)     21.2161         0.021320   
     60. D(C   4,C   3,O   1,O   0)    163.5727         0.021320   
     61. D(C   4,C   3,O   1,C   2)   -103.3411         0.021320   
     62. D(H   9,C   3,C   2,H   8)      0.1089         0.015694   
     63. D(O   1,C   3,C   2,H   8)    103.0857         0.015694   
     64. D(O   1,C   3,C   2,C   6)    -95.5235         0.015694   
     65. D(C   5,C   4,C   3,C   2)    -10.9153         0.015726   
     66. D(C   5,C   4,C   3,O   1)     48.0373         0.015726   
     67. D(C   5,C   4,C   3,H   9)   -174.3934         0.015726   
     68. D(H  10,C   4,C   3,O   1)   -117.4809         0.015726   
     69. D(H  10,C   4,C   3,H   9)     20.0883         0.015726   
     70. D(H  10,C   4,C   3,C   2)   -176.4335         0.015726   
     71. D(C   6,C   5,C   4,C   3)     21.9581         0.045672   
     72. D(C   6,C   5,C   4,H  10)   -172.7669         0.045672   
     73. D(H  11,C   5,C   4,C   3)   -169.1242         0.045672   
     74. D(H  11,C   5,C   4,H  10)     -3.8493         0.045672   
     75. D(C   5,C   6,C   2,O   1)    -48.8712         0.014367   
     76. D(C   5,C   6,C   2,C   3)     13.1435         0.014367   
     77. D(C   5,C   6,C   2,H   8)    174.3128         0.014367   
     78. D(H  12,C   6,C   5,H  11)    -70.7563         0.014241   
     79. D(H  12,C   6,C   2,C   3)   -104.9969         0.014367   
     80. D(H  12,C   6,C   2,H   8)     56.1724         0.014367   
     81. D(H  13,C   6,C   2,O   1)     70.1615         0.014367   
     82. D(H  13,C   6,C   2,C   3)    132.1762         0.014367   
     83. D(H  13,C   6,C   2,H   8)    -66.6545         0.014367   
     84. D(C   2,C   6,C   5,C   4)    -22.7297         0.014241   
     85. D(C   2,C   6,C   5,H  11)    168.0677         0.014241   
     86. D(H  12,C   6,C   2,O   1)   -167.0116         0.014367   
     87. D(H  12,C   6,C   5,C   4)     98.4463         0.014241   
     88. D(H  13,C   6,C   5,C   4)   -139.2656         0.014241   
     89. D(H  13,C   6,C   5,H  11)     51.5317         0.014241   
    -----------------------------------------------------------------

Number of atoms                         .... 14
Number of degrees of freedom            .... 89

         *************************************************************
         *                GEOMETRY OPTIMIZATION CYCLE   1            *
         *************************************************************
---------------------------------
CARTESIAN COORDINATES (ANGSTROEM)
---------------------------------
  O     -2.423804   -0.435863    1.856668
  O     -0.474554   -0.275554    0.843416
  C     -0.695408    0.246591   -0.426199
  C      0.227493    0.920957    0.518013
  C      1.570456    0.418121    0.254181
  C      1.368397   -0.611501   -0.558514
  C      0.090917   -0.634464   -1.320920
  H     -2.424195    0.496953    2.125599
  H     -1.709367    0.599047   -0.637020
  H     -0.029865    1.822513    1.080743
  H      2.476440    0.665820    0.805759
  H      2.163732   -1.320380   -0.810432
  H      0.230555   -0.259471   -2.349163
  H     -0.370797   -1.632669   -1.382132

----------------------------
CARTESIAN COORDINATES (A.U.)
----------------------------
  NO LB      ZA    FRAG     MASS         X           Y           Z
   0 O     8.0000    0    15.999   -4.580325   -0.823661    3.508595
   1 O     8.0000    0    15.999   -0.896776   -0.520721    1.593826
   2 C     6.0000    0    12.011   -1.314130    0.465990   -0.805400
   3 C     6.0000    0    12.011    0.429900    1.740356    0.978902
   4 C     6.0000    0    12.011    2.967731    0.790134    0.480333
   5 C     6.0000    0    12.011    2.585897   -1.155570   -1.055439
   6 C     6.0000    0    12.011    0.171807   -1.198963   -2.496177
   7 H     1.0000    0     1.008   -4.581065    0.939105    4.016799
   8 H     1.0000    0     1.008   -3.230235    1.132034   -1.203793
   9 H     1.0000    0     1.008   -0.056437    3.444051    2.042308
  10 H     1.0000    0     1.008    4.679793    1.258217    1.522665
  11 H     1.0000    0     1.008    4.088861   -2.495157   -1.531494
  12 H     1.0000    0     1.008    0.435685   -0.490328   -4.439275
  13 H     1.0000    0     1.008   -0.700704   -3.085297   -2.611851

--------------------------------
INTERNAL COORDINATES (ANGSTROEM)
--------------------------------
 O      0   0   0     0.000000000000     0.00000000     0.00000000
 O      1   0   0     1.902715377455     0.00000000     0.00000000
 C      2   1   0     1.395610779060   108.36358857     0.00000000
 C      2   1   3     1.430692395689   127.38373481    69.90627581
 C      4   2   1     1.472254480221   102.62709090   163.91686394
 C      5   4   2     1.334719899310   104.62391771    48.46925189
 C      3   2   1     1.494090580772   104.79649688   226.52533669
 H      1   2   3     0.970805458243    93.30601743   277.64754272
 H      3   2   1     1.093934382305   115.83247128     7.84796791
 H      4   2   1     1.093475902357   116.80174600    21.25159764
 H      5   4   2     1.089171439115   126.22507171   242.55199538
 H      6   5   4     1.094710950296   122.79781008   190.64287094
 H      7   3   2     1.103247900478   114.87457173   192.75700089
 H      7   3   2     1.101435281155   110.44194351    70.11429419

---------------------------
INTERNAL COORDINATES (A.U.)
---------------------------
 O      0   0   0     0.000000000000     0.00000000     0.00000000
 O      1   0   0     3.595610974190     0.00000000     0.00000000
 C      2   1   0     2.637322161972   108.36358857     0.00000000
 C      2   1   3     2.703616809736   127.38373481    69.90627581
 C      4   2   1     2.782157767057   102.62709090   163.91686394
 C      5   4   2     2.522255075190   104.62391771    48.46925189
 C      3   2   1     2.823422016931   104.79649688   226.52533669
 H      1   2   3     1.834556445395    93.30601743   277.64754272
 H      3   2   1     2.067236391037   115.83247128     7.84796791
 H      4   2   1     2.066369989497   116.80174600    21.25159764
 H      5   4   2     2.058235732816   126.22507171   242.55199538
 H      6   5   4     2.068703891865   122.79781008   190.64287094
 H      7   3   2     2.084836389726   114.87457173   192.75700089
 H      7   3   2     2.081411035622   110.44194351    70.11429419

---------------------
BASIS SET INFORMATION
---------------------
There are 3 groups of distinct atoms

 Group   1 Type O   : 7s4p1d contracted to 3s2p1d pattern {511/31/1}
 Group   2 Type C   : 7s4p1d contracted to 3s2p1d pattern {511/31/1}
 Group   3 Type H   : 4s1p contracted to 2s1p pattern {31/1}

Atom   0O    basis set group =>   1
Atom   1O    basis set group =>   1
Atom   2C    basis set group =>   2
Atom   3C    basis set group =>   2
Atom   4C    basis set group =>   2
Atom   5C    basis set group =>   2
Atom   6C    basis set group =>   2
Atom   7H    basis set group =>   3
Atom   8H    basis set group =>   3
Atom   9H    basis set group =>   3
Atom  10H    basis set group =>   3
Atom  11H    basis set group =>   3
Atom  12H    basis set group =>   3
Atom  13H    basis set group =>   3
---------------------------------
AUXILIARY/J BASIS SET INFORMATION
---------------------------------
There are 3 groups of distinct atoms

 Group   1 Type O   : 12s5p4d2f1g contracted to 6s4p3d1f1g pattern {711111/2111/211/2/1}
 Group   2 Type C   : 12s5p4d2f1g contracted to 6s4p3d1f1g pattern {711111/2111/211/2/1}
 Group   3 Type H   : 5s2p1d contracted to 3s1p1d pattern {311/2/1}

Atom   0O    basis set group =>   1
Atom   1O    basis set group =>   1
Atom   2C    basis set group =>   2
Atom   3C    basis set group =>   2
Atom   4C    basis set group =>   2
Atom   5C    basis set group =>   2
Atom   6C    basis set group =>   2
Atom   7H    basis set group =>   3
Atom   8H    basis set group =>   3
Atom   9H    basis set group =>   3
Atom  10H    basis set group =>   3
Atom  11H    basis set group =>   3
Atom  12H    basis set group =>   3
Atom  13H    basis set group =>   3


           ************************************************************
           *        Program running with 8 parallel MPI-processes     *
           *              working on a common directory               *
           ************************************************************
------------------------------------------------------------------------------
                           ORCA GTO INTEGRAL CALCULATION
                           -- RI-GTO INTEGRALS CHOSEN --
------------------------------------------------------------------------------
------------------------------------------------------------------------------
                   ___                                                        
                  /   \      - P O W E R E D   B Y -                         
                 /     \                                                     
                 |  |  |   _    _      __       _____    __    __             
                 |  |  |  | |  | |    /  \     |  _  \  |  |  /  |          
                  \  \/   | |  | |   /    \    | | | |  |  | /  /          
                 / \  \   | |__| |  /  /\  \   | |_| |  |  |/  /          
                |  |  |   |  __  | /  /__\  \  |    /   |      \           
                |  |  |   | |  | | |   __   |  |    \   |  |\   \          
                \     /   | |  | | |  |  |  |  | |\  \  |  | \   \       
                 \___/    |_|  |_| |__|  |__|  |_| \__\ |__|  \__/        
                                                                              
                      - O R C A' S   B I G   F R I E N D -                    
                                      &                                       
                       - I N T E G R A L  F E E D E R -                       
                                                                              
 v1 FN, 2020, v2 2021                                                         
------------------------------------------------------------------------------


Reading SHARK input file path_opt5_orca.SHARKINP.tmp ... ok
----------------------
SHARK INTEGRAL PACKAGE
----------------------

Number of atoms                             ...     14
Number of basis functions                   ...    133
Number of shells                            ...     63
Maximum angular momentum                    ...      2
Integral batch strategy                     ... SHARK/LIBINT Hybrid
RI-J (if used) integral strategy            ... SPLIT-RIJ (Revised 2003 algorithm where possible)
Printlevel                                  ...      1
Contraction scheme used                     ... SEGMENTED contraction
Coulomb Range Separation                    ... NOT USED
Exchange Range Separation                   ... NOT USED
Finite Nucleus Model                        ... NOT USED
Auxiliary Coulomb fitting basis             ... AVAILABLE
   # of basis functions in Aux-J            ...    420
   # of shells in Aux-J                     ...    140
   Maximum angular momentum in Aux-J        ...      4
Auxiliary J/K fitting basis                 ... NOT available
Auxiliary Correlation fitting basis         ... NOT available
Auxiliary 'external' fitting basis          ... NOT available
Integral threshold                          ...     2.500000e-11
Primitive cut-off                           ...     2.500000e-12
Primitive pair pre-selection threshold      ...     2.500000e-12

Calculating pre-screening integrals         ... done (  0.0 sec) Dimension = 63
Organizing shell pair data                  ... done (  0.0 sec)
Shell pair information
Total number of shell pairs                 ...      2016
Shell pairs after pre-screening             ...      1942
Total number of primitive shell pairs       ...      7252
Primitive shell pairs kept                  ...      5331
          la=0 lb=0:    602 shell pairs
          la=1 lb=0:    710 shell pairs
          la=1 lb=1:    225 shell pairs
          la=2 lb=0:    236 shell pairs
          la=2 lb=1:    142 shell pairs
          la=2 lb=2:     27 shell pairs

Calculating one electron integrals          ... done (  0.0 sec)
Calculating RI/J V-Matrix + Cholesky decomp.... done (  0.0 sec)
Calculating Nuclear repulsion               ... done (  0.0 sec) ENN=    301.546581875280 Eh

SHARK setup successfully completed in   0.1 seconds

Maximum memory used throughout the entire GTOINT-calculation: 10.7 MB


           ************************************************************
           *        Program running with 8 parallel MPI-processes     *
           *              working on a common directory               *
           ************************************************************
-------------------------------------------------------------------------------
                                 ORCA SCF
-------------------------------------------------------------------------------

------------
SCF SETTINGS
------------
Hamiltonian:
 Density Functional     Method          .... DFT(GTOs)
 Exchange Functional    Exchange        .... PBE
   PBE kappa parameter   XKappa         ....  0.804000
   PBE mue parameter    XMuePBE         ....  0.219520
 Correlation Functional Correlation     .... PBE
   PBE beta parameter  CBetaPBE         ....  0.066725
 LDA part of GGA corr.  LDAOpt          .... PW91-LDA
 Gradients option       PostSCFGGA      .... off
 Hybrid DFT is turned on
   Fraction HF Exchange ScalHFX         ....  0.250000
   Scaling of DF-GGA-X  ScalDFX         ....  0.750000
   Scaling of DF-GGA-C  ScalDFC         ....  1.000000
   Scaling of DF-LDA-C  ScalLDAC        ....  1.000000
   Perturbative correction              ....  0.000000
   Density functional embedding theory  .... OFF
   NL short-range parameter             ....  6.900000
 RI-approximation to the Coulomb term is turned on
   Number of AuxJ basis functions       .... 420
   RIJ-COSX (HFX calculated with COS-X)).... on


General Settings:
 Integral files         IntName         .... path_opt5_orca
 Hartree-Fock type      HFTyp           .... UHF
 Total Charge           Charge          ....    0
 Multiplicity           Mult            ....    2
 Number of Electrons    NEL             ....   53
 Basis Dimension        Dim             ....  133
 Nuclear Repulsion      ENuc            ....    301.5465818753 Eh

Convergence Acceleration:
 DIIS                   CNVDIIS         .... on
   Start iteration      DIISMaxIt       ....    12
   Startup error        DIISStart       ....  0.200000
   # of expansion vecs  DIISMaxEq       ....     5
   Bias factor          DIISBfac        ....   1.050
   Max. coefficient     DIISMaxC        ....  10.000
 Trust-Rad. Augm. Hess. CNVTRAH         .... auto
   Auto Start mean grad. ratio tolernc. ....  1.125000
   Auto Start start iteration           ....    20
   Auto Start num. interpolation iter.  ....    10
   Max. Number of Micro iterations      ....    16
   Max. Number of Macro iterations      .... Maxiter - #DIIS iter
   Number of Davidson start vectors     ....     2
   Converg. threshold I  (grad. norm)   ....   1.000e-05
   Converg. threshold II (energy diff.) ....   1.000e-08
   Grad. Scal. Fac. for Micro threshold ....   0.100
   Minimum threshold for Micro iter.    ....   0.010
   NR start threshold (gradient norm)   ....   0.001
   Initial trust radius                 ....   0.400
   Minimum AH scaling param. (alpha)    ....   1.000
   Maximum AH scaling param. (alpha)    .... 1000.000
   Orbital update algorithm             .... Taylor
   White noise on init. David. guess    .... on
   Maximum white noise                  ....   0.010
   Quad. conv. algorithm                .... NR
 SOSCF                  CNVSOSCF        .... off
 Level Shifting         CNVShift        .... on
   Level shift para.    LevelShift      ....    0.2500
   Turn off err/grad.   ShiftErr        ....    0.0010
 Zerner damping         CNVZerner       .... off
 Static damping         CNVDamp         .... on
   Fraction old density DampFac         ....    0.7000
   Max. Damping (<1)    DampMax         ....    0.9800
   Min. Damping (>=0)   DampMin         ....    0.0000
   Turn off err/grad.   DampErr         ....    0.1000
 Fernandez-Rico         CNVRico         .... off

SCF Procedure:
 Maximum # iterations   MaxIter         ....   250
 SCF integral mode      SCFMode         .... Direct
   Integral package                     .... SHARK and LIBINT hybrid scheme
 Reset frequency        DirectResetFreq ....    20
 Integral Threshold     Thresh          ....  2.500e-11 Eh
 Primitive CutOff       TCut            ....  2.500e-12 Eh

Convergence Tolerance:
 Convergence Check Mode ConvCheckMode   .... Total+1el-Energy
 Convergence forced     ConvForced      .... 0
 Energy Change          TolE            ....  1.000e-08 Eh
 1-El. energy change                    ....  1.000e-05 Eh
 DIIS Error             TolErr          ....  5.000e-07


Diagonalization of the overlap matrix:
Smallest eigenvalue                        ... 6.413e-04
Time for diagonalization                   ...    0.003 sec
Threshold for overlap eigenvalues          ... 1.000e-08
Number of eigenvalues below threshold      ... 0
Time for construction of square roots      ...    0.001 sec
Total time needed                          ...    0.004 sec

Time for model grid setup =    0.042 sec

------------------------------
INITIAL GUESS: MODEL POTENTIAL
------------------------------
Loading Hartree-Fock densities                     ... done
Calculating cut-offs                               ... done
Initializing the effective Hamiltonian             ... done
Setting up the integral package (SHARK)            ... done
Starting the Coulomb interaction                   ... done (   0.0 sec)
Reading the grid                                   ... done
Mapping shells                                     ... done
Starting the XC term evaluation                    ... done (   0.0 sec)
  promolecular density results
     # of electrons  =     52.997610678
     EX              =    -43.919834015
     EC              =     -1.759966492
     EX+EC           =    -45.679800507
Transforming the Hamiltonian                       ... done (   0.0 sec)
Diagonalizing the Hamiltonian                      ... done (   0.0 sec)
Back transforming the eigenvectors                 ... done (   0.0 sec)
Now organizing SCF variables                       ... done
                      ------------------
                      INITIAL GUESS DONE (   0.1 sec)
                      ------------------
-------------------
DFT GRID GENERATION
-------------------

General Integration Accuracy     IntAcc      ... 4.388
Radial Grid Type                 RadialGrid  ... OptM3 with GC (2021)
Angular Grid (max. ang.)         AngularGrid ... 4 (Lebedev-302)
Angular grid pruning method      GridPruning ... 4 (adaptive)
Weight generation scheme         WeightScheme... Becke
Basis function cutoff            BFCut       ... 1.0000e-11
Integration weight cutoff        WCut        ... 1.0000e-14
Angular grids for H and He will be reduced by one unit
Partially contracted basis set               ... off
Rotationally invariant grid construction     ... off

Total number of grid points                  ...    64858
Total number of batches                      ...     1022
Average number of points per batch           ...       63
Average number of grid points per atom       ...     4633
Time for grid setup =    0.243 sec

--------------------
COSX GRID GENERATION
--------------------

GRIDX 1
-------
General Integration Accuracy     IntAcc      ... 3.816
Radial Grid Type                 RadialGrid  ... OptM3 with GC (2021)
Angular Grid (max. ang.)         AngularGrid ... 1 (Lebedev-50)
Angular grid pruning method      GridPruning ... 4 (adaptive)
Weight generation scheme         WeightScheme... Becke
Basis function cutoff            BFCut       ... 1.0000e-11
Integration weight cutoff        WCut        ... 1.0000e-14
Angular grids for H and He will be reduced by one unit
Partially contracted basis set               ... on
Rotationally invariant grid construction     ... off

Total number of grid points                  ...     8299
Total number of batches                      ...      137
Average number of points per batch           ...       60
Average number of grid points per atom       ...      593
UseSFitting                                  ... on

GRIDX 2
-------
General Integration Accuracy     IntAcc      ... 4.020
Radial Grid Type                 RadialGrid  ... OptM3 with GC (2021)
Angular Grid (max. ang.)         AngularGrid ... 2 (Lebedev-110)
Angular grid pruning method      GridPruning ... 4 (adaptive)
Weight generation scheme         WeightScheme... Becke
Basis function cutoff            BFCut       ... 1.0000e-11
Integration weight cutoff        WCut        ... 1.0000e-14
Angular grids for H and He will be reduced by one unit
Partially contracted basis set               ... on
Rotationally invariant grid construction     ... off

Total number of grid points                  ...    18035
Total number of batches                      ...      289
Average number of points per batch           ...       62
Average number of grid points per atom       ...     1288
UseSFitting                                  ... on

GRIDX 3
-------
General Integration Accuracy     IntAcc      ... 4.338
Radial Grid Type                 RadialGrid  ... OptM3 with GC (2021)
Angular Grid (max. ang.)         AngularGrid ... 3 (Lebedev-194)
Angular grid pruning method      GridPruning ... 4 (adaptive)
Weight generation scheme         WeightScheme... Becke
Basis function cutoff            BFCut       ... 1.0000e-11
Integration weight cutoff        WCut        ... 1.0000e-14
Angular grids for H and He will be reduced by one unit
Partially contracted basis set               ... on
Rotationally invariant grid construction     ... off

Total number of grid points                  ...    39625
Total number of batches                      ...      626
Average number of points per batch           ...       63
Average number of grid points per atom       ...     2830
UseSFitting                                  ... on

Time for X-Grid setup             =    0.179 sec

--------------
SCF ITERATIONS
--------------
ITER       Energy         Delta-E        Max-DP      RMS-DP      [F,P]     Damp
               ***  Starting incremental Fock matrix formation  ***
  0   -344.0780928976   0.000000000000 0.07359577  0.00184065  0.1814479 0.7000
  1   -344.1989773717  -0.120884474091 0.05469490  0.00118930  0.0640795 0.7000
                               ***Turning on DIIS***
  2   -344.2458724322  -0.046895060515 0.11573206  0.00199471  0.0202873 0.0000
  3   -344.3300992125  -0.084226780260 0.03391588  0.00108816  0.0685626 0.0000
  4   -344.3500785973  -0.019979384879 0.01511995  0.00049866  0.0114606 0.0000
  5   -344.3522545644  -0.002175967100 0.00916740  0.00030189  0.0101787 0.0000
  6   -344.3531879328  -0.000933368319 0.00491316  0.00012265  0.0047139 0.0000
  7   -344.3534627963  -0.000274863558 0.00212688  0.00006270  0.0022911 0.0000
  8   -344.3535581244  -0.000095328125 0.00177541  0.00004317  0.0016080 0.0000
  9   -344.3536010224  -0.000042897914 0.00236382  0.00006191  0.0008374 0.0000
               *** Restarting incremental Fock matrix formation ***
                                   *** Resetting DIIS ***
 10   -344.3535959819   0.000005040454 0.00067042  0.00001396  0.0003214 0.0000
 11   -344.3535977923  -0.000001810350 0.00026148  0.00000632  0.0002822 0.0000
 12   -344.3535987432  -0.000000950952 0.00063851  0.00000984  0.0002667 0.0000
 13   -344.3536001612  -0.000001417945 0.00073596  0.00001086  0.0002235 0.0000
 14   -344.3536013919  -0.000001230773 0.00094728  0.00001429  0.0001740 0.0000
 15   -344.3536025290  -0.000001137031 0.00072337  0.00001081  0.0001066 0.0000
 16   -344.3536030077  -0.000000478716 0.00026226  0.00000391  0.0000547 0.0000
 17   -344.3536031096  -0.000000101889 0.00021142  0.00000328  0.0000362 0.0000
 18   -344.3536031716  -0.000000062086 0.00011699  0.00000179  0.0000205 0.0000
 19   -344.3536031933  -0.000000021674 0.00011776  0.00000179  0.0000187 0.0000
 20   -344.3536032072  -0.000000013920 0.00008162  0.00000133  0.0000109 0.0000
 21   -344.3536032156  -0.000000008334 0.00003788  0.00000064  0.0000064 0.0000
 22   -344.3536032157  -0.000000000147 0.00001245  0.00000032  0.0000049 0.0000
 23   -344.3536032169  -0.000000001222 0.00000668  0.00000018  0.0000055 0.0000
                 **** Energy Check signals convergence ****

               *****************************************************
               *                     SUCCESS                       *
               *           SCF CONVERGED AFTER  24 CYCLES          *
               *****************************************************

Old exchange energy                            =    -11.203976291 Eh
New exchange energy                            =    -11.203953664 Eh
Exchange energy change after final integration =      0.000022626 Eh
Total energy after final integration           =   -344.353580591 Eh
Final COS-X integration done in                =     0.669 sec

----------------
TOTAL SCF ENERGY
----------------

Total Energy       :         -344.35358059 Eh           -9370.33731 eV

Components:
Nuclear Repulsion  :          301.54658188 Eh            8205.49965 eV
Electronic Energy  :         -645.90016247 Eh          -17575.83696 eV
One Electron Energy:        -1066.23131010 Eh          -29013.62897 eV
Two Electron Energy:          420.33114763 Eh           11437.79201 eV
Max COSX asymmetry :            0.00000191 Eh               0.00005 eV

Virial components:
Potential Energy   :         -686.24415374 Eh          -18673.65277 eV
Kinetic Energy     :          341.89057315 Eh            9303.31547 eV
Virial Ratio       :            2.00720408


DFT components:
N(Alpha)           :       27.000017565881 electrons
N(Beta)            :       26.000019701197 electrons
N(Total)           :       53.000037267078 electrons
E(X)               :      -33.524892041525 Eh       
E(C)               :       -1.774728029177 Eh       
E(XC)              :      -35.299620070702 Eh       
DFET-embed. en.    :        0.000000000000 Eh       

---------------
SCF CONVERGENCE
---------------

  Last Energy change         ...    1.5643e-10  Tolerance :   1.0000e-08
  Last MAX-Density change    ...    0.0000e+00  Tolerance :   1.0000e-07
  Last RMS-Density change    ...    0.0000e+00  Tolerance :   5.0000e-09
  Last DIIS Error            ...    5.4645e-06  Tolerance :   5.0000e-07

             **** THE GBW FILE WAS UPDATED (path_opt5_orca.gbw) ****
             **** DENSITY path_opt5_orca.scfp WAS UPDATED ****
             **** ENERGY FILE WAS UPDATED (path_opt5_orca.en.tmp) ****
----------------------
UHF SPIN CONTAMINATION
----------------------

Warning: in a DFT calculation there is little theoretical justification to 
         calculate <S**2> as in Hartree-Fock theory. We will do it anyways
         but you should keep in mind that the values have only limited relevance

Expectation value of <S**2>     :     0.752923
Ideal value S*(S+1) for S=0.5   :     0.750000
Deviation                       :     0.002923

             **** THE GBW FILE WAS UPDATED (path_opt5_orca.gbw) ****
             **** DENSITY path_opt5_orca.scfp WAS UPDATED ****
----------------
ORBITAL ENERGIES
----------------
                 SPIN UP ORBITALS
  NO   OCC          E(Eh)            E(eV) 
   0   1.0000     -19.231420      -523.3135 
   1   1.0000     -19.210733      -522.7506 
   2   1.0000     -10.294916      -280.1389 
   3   1.0000     -10.291595      -280.0485 
   4   1.0000     -10.244919      -278.7784 
   5   1.0000     -10.241611      -278.6884 
   6   1.0000     -10.235252      -278.5154 
   7   1.0000      -1.137979       -30.9660 
   8   1.0000      -0.966297       -26.2943 
   9   1.0000      -0.848882       -23.0993 
  10   1.0000      -0.759454       -20.6658 
  11   1.0000      -0.682464       -18.5708 
  12   1.0000      -0.604295       -16.4437 
  13   1.0000      -0.572339       -15.5741 
  14   1.0000      -0.568753       -15.4766 
  15   1.0000      -0.478316       -13.0156 
  16   1.0000      -0.474294       -12.9062 
  17   1.0000      -0.443145       -12.0586 
  18   1.0000      -0.427067       -11.6211 
  19   1.0000      -0.415084       -11.2950 
  20   1.0000      -0.406705       -11.0670 
  21   1.0000      -0.382009       -10.3950 
  22   1.0000      -0.365876        -9.9560 
  23   1.0000      -0.327707        -8.9174 
  24   1.0000      -0.300115        -8.1665 
  25   1.0000      -0.292182        -7.9507 
  26   1.0000      -0.245671        -6.6850 
  27   0.0000      -0.005805        -0.1580 
  28   0.0000       0.063276         1.7218 
  29   0.0000       0.093124         2.5340 
  30   0.0000       0.106445         2.8965 
  31   0.0000       0.113735         3.0949 
  32   0.0000       0.129657         3.5281 
  33   0.0000       0.138602         3.7715 
  34   0.0000       0.145403         3.9566 
  35   0.0000       0.151749         4.1293 
  36   0.0000       0.176491         4.8026 
  37   0.0000       0.208837         5.6827 
  38   0.0000       0.226406         6.1608 
  39   0.0000       0.304177         8.2771 
  40   0.0000       0.317420         8.6374 
  41   0.0000       0.389301        10.5934 
  42   0.0000       0.404952        11.0193 
  43   0.0000       0.458045        12.4640 
  44   0.0000       0.469679        12.7806 
  45   0.0000       0.485665        13.2156 
  46   0.0000       0.501979        13.6595 
  47   0.0000       0.511432        13.9168 
  48   0.0000       0.545842        14.8531 
  49   0.0000       0.558538        15.1986 
  50   0.0000       0.569613        15.5000 
  51   0.0000       0.598522        16.2866 
  52   0.0000       0.618142        16.8205 
  53   0.0000       0.631173        17.1751 
  54   0.0000       0.640146        17.4193 
  55   0.0000       0.661172        17.9914 
  56   0.0000       0.673223        18.3193 
  57   0.0000       0.682121        18.5615 
  58   0.0000       0.684005        18.6127 
  59   0.0000       0.689856        18.7719 
  60   0.0000       0.705745        19.2043 
  61   0.0000       0.729416        19.8484 
  62   0.0000       0.766641        20.8614 
  63   0.0000       0.807268        21.9669 
  64   0.0000       0.855660        23.2837 
  65   0.0000       0.891230        24.2516 
  66   0.0000       0.925981        25.1972 
  67   0.0000       0.953951        25.9583 
  68   0.0000       1.010269        27.4908 
  69   0.0000       1.027846        27.9691 
  70   0.0000       1.043846        28.4045 
  71   0.0000       1.044578        28.4244 
  72   0.0000       1.097949        29.8767 
  73   0.0000       1.111827        30.2544 
  74   0.0000       1.196989        32.5717 
  75   0.0000       1.241431        33.7811 
  76   0.0000       1.323656        36.0185 
  77   0.0000       1.344995        36.5992 
  78   0.0000       1.437513        39.1167 
  79   0.0000       1.461398        39.7667 
  80   0.0000       1.487328        40.4723 
  81   0.0000       1.521027        41.3893 
  82   0.0000       1.551290        42.2127 
  83   0.0000       1.561743        42.4972 
  84   0.0000       1.598988        43.5107 
  85   0.0000       1.646798        44.8116 
  86   0.0000       1.671671        45.4885 
  87   0.0000       1.710154        46.5357 
  88   0.0000       1.725836        46.9624 
  89   0.0000       1.742162        47.4066 
  90   0.0000       1.781678        48.4819 
  91   0.0000       1.799042        48.9544 
  92   0.0000       1.822330        49.5881 
  93   0.0000       1.836105        49.9630 
  94   0.0000       1.873462        50.9795 
  95   0.0000       1.881942        51.2102 
  96   0.0000       1.946626        52.9704 
  97   0.0000       1.973223        53.6941 
  98   0.0000       1.994327        54.2684 
  99   0.0000       2.004962        54.5578 
 100   0.0000       2.051143        55.8144 
 101   0.0000       2.096847        57.0581 
 102   0.0000       2.124562        57.8123 
 103   0.0000       2.150223        58.5105 
 104   0.0000       2.201584        59.9082 
 105   0.0000       2.231732        60.7285 
 106   0.0000       2.245138        61.0933 
 107   0.0000       2.276391        61.9437 
 108   0.0000       2.303683        62.6864 
 109   0.0000       2.394618        65.1609 
 110   0.0000       2.426946        66.0406 
 111   0.0000       2.490818        67.7786 
 112   0.0000       2.531303        68.8802 
 113   0.0000       2.604626        70.8755 
 114   0.0000       2.653862        72.2153 
 115   0.0000       2.680239        72.9330 
 116   0.0000       2.708708        73.7077 
 117   0.0000       2.738381        74.5151 
 118   0.0000       2.753962        74.9391 
 119   0.0000       2.805000        76.3279 
 120   0.0000       2.817412        76.6657 
 121   0.0000       2.899939        78.9114 
 122   0.0000       2.910245        79.1918 
 123   0.0000       2.972658        80.8901 
 124   0.0000       2.994143        81.4748 
 125   0.0000       3.009725        81.8988 
 126   0.0000       3.061933        83.3194 
 127   0.0000       3.121381        84.9371 
 128   0.0000       3.182185        86.5917 
 129   0.0000       3.366866        91.6171 
 130   0.0000       3.417816        93.0035 
 131   0.0000       3.490322        94.9765 
 132   0.0000       3.738520       101.7303 

                 SPIN DOWN ORBITALS
  NO   OCC          E(Eh)            E(eV) 
   0   1.0000     -19.227221      -523.1993 
   1   1.0000     -19.185304      -522.0587 
   2   1.0000     -10.294884      -280.1380 
   3   1.0000     -10.291723      -280.0520 
   4   1.0000     -10.244898      -278.7779 
   5   1.0000     -10.241308      -278.6802 
   6   1.0000     -10.235266      -278.5157 
   7   1.0000      -1.132891       -30.8275 
   8   1.0000      -0.898150       -24.4399 
   9   1.0000      -0.846571       -23.0364 
  10   1.0000      -0.759238       -20.6599 
  11   1.0000      -0.680088       -18.5061 
  12   1.0000      -0.603703       -16.4276 
  13   1.0000      -0.570935       -15.5359 
  14   1.0000      -0.565910       -15.3992 
  15   1.0000      -0.473440       -12.8829 
  16   1.0000      -0.472732       -12.8637 
  17   1.0000      -0.437913       -11.9162 
  18   1.0000      -0.413682       -11.2569 
  19   1.0000      -0.408014       -11.1026 
  20   1.0000      -0.400366       -10.8945 
  21   1.0000      -0.379116       -10.3163 
  22   1.0000      -0.332613        -9.0509 
  23   1.0000      -0.302110        -8.2208 
  24   1.0000      -0.267587        -7.2814 
  25   1.0000      -0.251106        -6.8329 
  26   0.0000      -0.073312        -1.9949 
  27   0.0000      -0.004314        -0.1174 
  28   0.0000       0.066147         1.8000 
  29   0.0000       0.094818         2.5801 
  30   0.0000       0.107003         2.9117 
  31   0.0000       0.115080         3.1315 
  32   0.0000       0.131462         3.5773 
  33   0.0000       0.139062         3.7841 
  34   0.0000       0.146434         3.9847 
  35   0.0000       0.152285         4.1439 
  36   0.0000       0.180178         4.9029 
  37   0.0000       0.210134         5.7180 
  38   0.0000       0.226883         6.1738 
  39   0.0000       0.304584         8.2882 
  40   0.0000       0.317644         8.6435 
  41   0.0000       0.389470        10.5980 
  42   0.0000       0.405234        11.0270 
  43   0.0000       0.458649        12.4805 
  44   0.0000       0.470346        12.7988 
  45   0.0000       0.486131        13.2283 
  46   0.0000       0.502706        13.6793 
  47   0.0000       0.512552        13.9473 
  48   0.0000       0.547834        14.9073 
  49   0.0000       0.560261        15.2455 
  50   0.0000       0.570399        15.5214 
  51   0.0000       0.599190        16.3048 
  52   0.0000       0.620108        16.8740 
  53   0.0000       0.632534        17.2121 
  54   0.0000       0.641109        17.4455 
  55   0.0000       0.665508        18.1094 
  56   0.0000       0.676778        18.4161 
  57   0.0000       0.682580        18.5740 
  58   0.0000       0.684341        18.6219 
  59   0.0000       0.690285        18.7836 
  60   0.0000       0.706077        19.2133 
  61   0.0000       0.729843        19.8600 
  62   0.0000       0.767361        20.8809 
  63   0.0000       0.807791        21.9811 
  64   0.0000       0.857190        23.3253 
  65   0.0000       0.903118        24.5751 
  66   0.0000       0.934118        25.4186 
  67   0.0000       0.998259        27.1640 
  68   0.0000       1.016016        27.6472 
  69   0.0000       1.030953        28.0537 
  70   0.0000       1.054930        28.7061 
  71   0.0000       1.075430        29.2639 
  72   0.0000       1.103582        30.0300 
  73   0.0000       1.126564        30.6554 
  74   0.0000       1.203730        32.7552 
  75   0.0000       1.242701        33.8156 
  76   0.0000       1.326169        36.0869 
  77   0.0000       1.345968        36.6256 
  78   0.0000       1.447635        39.3922 
  79   0.0000       1.463608        39.8268 
  80   0.0000       1.488166        40.4951 
  81   0.0000       1.525931        41.5227 
  82   0.0000       1.559303        42.4308 
  83   0.0000       1.564055        42.5601 
  84   0.0000       1.600718        43.5577 
  85   0.0000       1.647752        44.8376 
  86   0.0000       1.675311        45.5875 
  87   0.0000       1.710422        46.5429 
  88   0.0000       1.728063        47.0230 
  89   0.0000       1.742542        47.4170 
  90   0.0000       1.782482        48.5038 
  91   0.0000       1.802876        49.0588 
  92   0.0000       1.822753        49.5996 
  93   0.0000       1.836802        49.9819 
  94   0.0000       1.875946        51.0471 
  95   0.0000       1.882424        51.2233 
  96   0.0000       1.947677        52.9990 
  97   0.0000       1.973664        53.7061 
  98   0.0000       1.995430        54.2984 
  99   0.0000       2.005377        54.5691 
 100   0.0000       2.052802        55.8596 
 101   0.0000       2.097739        57.0824 
 102   0.0000       2.125697        57.8432 
 103   0.0000       2.150639        58.5219 
 104   0.0000       2.202238        59.9260 
 105   0.0000       2.241046        60.9820 
 106   0.0000       2.251003        61.2529 
 107   0.0000       2.277717        61.9798 
 108   0.0000       2.304732        62.7150 
 109   0.0000       2.394833        65.1667 
 110   0.0000       2.427485        66.0552 
 111   0.0000       2.491425        67.7951 
 112   0.0000       2.531840        68.8949 
 113   0.0000       2.607469        70.9528 
 114   0.0000       2.681780        72.9749 
 115   0.0000       2.726636        74.1955 
 116   0.0000       2.736536        74.4649 
 117   0.0000       2.756041        74.9957 
 118   0.0000       2.787041        75.8392 
 119   0.0000       2.811538        76.5059 
 120   0.0000       2.822695        76.8094 
 121   0.0000       2.903156        78.9989 
 122   0.0000       2.914144        79.2979 
 123   0.0000       2.992653        81.4342 
 124   0.0000       3.020172        82.1831 
 125   0.0000       3.045610        82.8753 
 126   0.0000       3.064961        83.4018 
 127   0.0000       3.124442        85.0204 
 128   0.0000       3.185389        86.6788 
 129   0.0000       3.372148        91.7608 
 130   0.0000       3.420011        93.0632 
 131   0.0000       3.492872        95.0459 
 132   0.0000       3.762335       102.3783 

                    ********************************
                    * MULLIKEN POPULATION ANALYSIS *
                    ********************************

--------------------------------------------
MULLIKEN ATOMIC CHARGES AND SPIN POPULATIONS
--------------------------------------------
   0 O :   -0.236497    0.922035
   1 O :   -0.283874    0.089192
   2 C :    0.014176   -0.006661
   3 C :    0.071982   -0.000358
   4 C :    0.021731   -0.003998
   5 C :   -0.134297    0.018531
   6 C :    0.108913    0.000267
   7 H :    0.157217   -0.024404
   8 H :    0.043389    0.003395
   9 H :    0.037758    0.003020
  10 H :    0.036226    0.000226
  11 H :    0.030296   -0.001128
  12 H :    0.062819   -0.000129
  13 H :    0.070161    0.000012
Sum of atomic charges         :   -0.0000000
Sum of atomic spin populations:    1.0000000

-----------------------------------------------------
MULLIKEN REDUCED ORBITAL CHARGES AND SPIN POPULATIONS
-----------------------------------------------------
CHARGE
  0 O s       :     3.866949  s :     3.866949
      pz      :     1.779295  p :     4.362520
      px      :     1.222331
      py      :     1.360894
      dz2     :     0.000955  d :     0.007028
      dxz     :     0.000272
      dyz     :     0.001633
      dx2y2   :     0.003618
      dxy     :     0.000550
  1 O s       :     3.864683  s :     3.864683
      pz      :     1.368113  p :     4.396968
      px      :     1.620267
      py      :     1.408587
      dz2     :     0.006004  d :     0.022224
      dxz     :     0.003054
      dyz     :     0.005824
      dx2y2   :     0.003383
      dxy     :     0.003960
  2 C s       :     3.200611  s :     3.200611
      pz      :     0.784534  p :     2.707417
      px      :     0.977029
      py      :     0.945854
      dz2     :     0.022138  d :     0.077796
      dxz     :     0.017596
      dyz     :     0.019872
      dx2y2   :     0.008116
      dxy     :     0.010074
  3 C s       :     3.179508  s :     3.179508
      pz      :     0.959442  p :     2.675156
      px      :     0.927337
      py      :     0.788377
      dz2     :     0.008558  d :     0.073354
      dxz     :     0.011768
      dyz     :     0.013535
      dx2y2   :     0.019344
      dxy     :     0.020150
  4 C s       :     3.151975  s :     3.151975
      pz      :     0.989019  p :     2.790849
      px      :     0.840117
      py      :     0.961713
      dz2     :     0.005937  d :     0.035445
      dxz     :     0.007993
      dyz     :     0.004893
      dx2y2   :     0.008087
      dxy     :     0.008534
  5 C s       :     3.210941  s :     3.210941
      pz      :     0.971384  p :     2.884267
      px      :     0.957938
      py      :     0.954946
      dz2     :     0.007974  d :     0.039089
      dxz     :     0.007406
      dyz     :     0.005734
      dx2y2   :     0.007982
      dxy     :     0.009992
  6 C s       :     2.920509  s :     2.920509
      pz      :     0.976746  p :     2.934234
      px      :     0.947100
      py      :     1.010389
      dz2     :     0.008163  d :     0.036344
      dxz     :     0.008060
      dyz     :     0.005692
      dx2y2   :     0.007215
      dxy     :     0.007215
  7 H s       :     0.775226  s :     0.775226
      pz      :     0.021473  p :     0.067558
      px      :     0.012745
      py      :     0.033340
  8 H s       :     0.934433  s :     0.934433
      pz      :     0.002476  p :     0.022177
      px      :     0.014609
      py      :     0.005092
  9 H s       :     0.939694  s :     0.939694
      pz      :     0.007270  p :     0.022548
      px      :     0.003293
      py      :     0.011985
 10 H s       :     0.939297  s :     0.939297
      pz      :     0.007839  p :     0.024478
      px      :     0.012031
      py      :     0.004608
 11 H s       :     0.946191  s :     0.946191
      pz      :     0.004788  p :     0.023513
      px      :     0.009801
      py      :     0.008924
 12 H s       :     0.913886  s :     0.913886
      pz      :     0.013244  p :     0.023295
      px      :     0.004371
      py      :     0.005681
 13 H s       :     0.906497  s :     0.906497
      pz      :     0.004248  p :     0.023342
      px      :     0.005968
      py      :     0.013126

SPIN
  0 O s       :     0.013495  s :     0.013495
      pz      :     0.129452  p :     0.908101
      px      :     0.752280
      py      :     0.026369
      dz2     :     0.000093  d :     0.000439
      dxz     :     0.000133
      dyz     :     0.000046
      dx2y2   :    -0.000136
      dxy     :     0.000304
  1 O s       :     0.008762  s :     0.008762
      pz      :     0.019193  p :     0.080096
      px      :     0.053327
      py      :     0.007575
      dz2     :    -0.000098  d :     0.000334
      dxz     :     0.000242
      dyz     :     0.000013
      dx2y2   :     0.000083
      dxy     :     0.000094
  2 C s       :    -0.001670  s :    -0.001670
      pz      :    -0.004521  p :    -0.005735
      px      :    -0.000767
      py      :    -0.000447
      dz2     :     0.000087  d :     0.000745
      dxz     :     0.000493
      dyz     :     0.000011
      dx2y2   :     0.000022
      dxy     :     0.000131
  3 C s       :    -0.000561  s :    -0.000561
      pz      :     0.001007  p :    -0.000480
      px      :     0.000020
      py      :    -0.001507
      dz2     :     0.000051  d :     0.000682
      dxz     :    -0.000020
      dyz     :    -0.000009
      dx2y2   :     0.000734
      dxy     :    -0.000074
  4 C s       :    -0.001088  s :    -0.001088
      pz      :    -0.002978  p :    -0.003076
      px      :     0.002842
      py      :    -0.002939
      dz2     :     0.000050  d :     0.000166
      dxz     :     0.000033
      dyz     :     0.000009
      dx2y2   :     0.000053
      dxy     :     0.000023
  5 C s       :     0.002480  s :     0.002480
      pz      :     0.007807  p :     0.016114
      px      :     0.001983
      py      :     0.006323
      dz2     :    -0.000007  d :    -0.000063
      dxz     :    -0.000011
      dyz     :    -0.000030
      dx2y2   :    -0.000023
      dxy     :     0.000008
  6 C s       :    -0.000190  s :    -0.000190
      pz      :     0.000516  p :     0.000418
      px      :    -0.000460
      py      :     0.000362
      dz2     :    -0.000022  d :     0.000039
      dxz     :     0.000025
      dyz     :     0.000001
      dx2y2   :     0.000006
      dxy     :     0.000028
  7 H s       :    -0.031288  s :    -0.031288
      pz      :     0.000435  p :     0.006884
      px      :     0.006275
      py      :     0.000174
  8 H s       :     0.003448  s :     0.003448
      pz      :    -0.000020  p :    -0.000053
      px      :    -0.000032
      py      :    -0.000000
  9 H s       :     0.003053  s :     0.003053
      pz      :    -0.000019  p :    -0.000033
      px      :    -0.000008
      py      :    -0.000006
 10 H s       :     0.000239  s :     0.000239
      pz      :     0.000014  p :    -0.000013
      px      :    -0.000004
      py      :    -0.000023
 11 H s       :    -0.001247  s :    -0.001247
      pz      :     0.000058  p :     0.000119
      px      :     0.000017
      py      :     0.000044
 12 H s       :    -0.000144  s :    -0.000144
      pz      :    -0.000001  p :     0.000015
      px      :     0.000010
      py      :     0.000006
 13 H s       :     0.000017  s :     0.000017
      pz      :    -0.000001  p :    -0.000005
      px      :    -0.000003
      py      :    -0.000001


                     *******************************
                     * LOEWDIN POPULATION ANALYSIS *
                     *******************************

-------------------------------------------
LOEWDIN ATOMIC CHARGES AND SPIN POPULATIONS
-------------------------------------------
   0 O :   -0.139649    0.882556
   1 O :   -0.099399    0.098479
   2 C :    0.050734   -0.002488
   3 C :    0.045807    0.001749
   4 C :   -0.057212   -0.002386
   5 C :   -0.000139    0.014493
   6 C :   -0.047662    0.000648
   7 H :    0.043419    0.003539
   8 H :    0.021783    0.001824
   9 H :    0.023529    0.001570
  10 H :    0.036049    0.000162
  11 H :    0.026084   -0.000114
  12 H :    0.044598   -0.000013
  13 H :    0.052059   -0.000020

----------------------------------------------------
LOEWDIN REDUCED ORBITAL CHARGES AND SPIN POPULATIONS
----------------------------------------------------
CHARGE
  0 O s       :     3.691233  s :     3.691233
      pz      :     1.763230  p :     4.436056
      px      :     1.212730
      py      :     1.460096
      dz2     :     0.001732  d :     0.012361
      dxz     :     0.000430
      dyz     :     0.002475
      dx2y2   :     0.007473
      dxy     :     0.000249
  1 O s       :     3.546050  s :     3.546050
      pz      :     1.429739  p :     4.516074
      px      :     1.613554
      py      :     1.472780
      dz2     :     0.009794  d :     0.037275
      dxz     :     0.004734
      dyz     :     0.010866
      dx2y2   :     0.005263
      dxy     :     0.006618
  2 C s       :     2.848226  s :     2.848226
      pz      :     0.877266  p :     2.929228
      px      :     1.046813
      py      :     1.005149
      dz2     :     0.044923  d :     0.171812
      dxz     :     0.041216
      dyz     :     0.045142
      dx2y2   :     0.016754
      dxy     :     0.023778
  3 C s       :     2.853624  s :     2.853624
      pz      :     1.022611  p :     2.937863
      px      :     0.995212
      py      :     0.920039
      dz2     :     0.018683  d :     0.162707
      dxz     :     0.027047
      dyz     :     0.029346
      dx2y2   :     0.045547
      dxy     :     0.042084
  4 C s       :     2.869443  s :     2.869443
      pz      :     1.036387  p :     3.094800
      px      :     1.022850
      py      :     1.035563
      dz2     :     0.012951  d :     0.092969
      dxz     :     0.021049
      dyz     :     0.013952
      dx2y2   :     0.022744
      dxy     :     0.022273
  5 C s       :     2.874906  s :     2.874906
      pz      :     0.995895  p :     3.028951
      px      :     1.000801
      py      :     1.032256
      dz2     :     0.016636  d :     0.096282
      dxz     :     0.019193
      dyz     :     0.015283
      dx2y2   :     0.020522
      dxy     :     0.024647
  6 C s       :     2.834306  s :     2.834306
      pz      :     1.036846  p :     3.118494
      px      :     1.028855
      py      :     1.052793
      dz2     :     0.021618  d :     0.094862
      dxz     :     0.021630
      dyz     :     0.014177
      dx2y2   :     0.019056
      dxy     :     0.018381
  7 H s       :     0.774385  s :     0.774385
      pz      :     0.054982  p :     0.182196
      px      :     0.032651
      py      :     0.094563
  8 H s       :     0.907378  s :     0.907378
      pz      :     0.011008  p :     0.070839
      px      :     0.042840
      py      :     0.016992
  9 H s       :     0.906610  s :     0.906610
      pz      :     0.022390  p :     0.069862
      px      :     0.012980
      py      :     0.034492
 10 H s       :     0.892689  s :     0.892689
      pz      :     0.022489  p :     0.071262
      px      :     0.035032
      py      :     0.013740
 11 H s       :     0.904580  s :     0.904580
      pz      :     0.015222  p :     0.069336
      px      :     0.029477
      py      :     0.024637
 12 H s       :     0.888740  s :     0.888740
      pz      :     0.037473  p :     0.066662
      px      :     0.013158
      py      :     0.016031
 13 H s       :     0.880544  s :     0.880544
      pz      :     0.012199  p :     0.067397
      px      :     0.017889
      py      :     0.037309

SPIN
  0 O s       :     0.009829  s :     0.009829
      pz      :     0.124905  p :     0.872610
      px      :     0.729963
      py      :     0.017743
      dz2     :    -0.000069  d :     0.000117
      dxz     :     0.000112
      dyz     :    -0.000066
      dx2y2   :     0.000045
      dxy     :     0.000094
  1 O s       :     0.010073  s :     0.010073
      pz      :     0.021193  p :     0.088105
      px      :     0.060502
      py      :     0.006410
      dz2     :    -0.000110  d :     0.000301
      dxz     :     0.000230
      dyz     :     0.000005
      dx2y2   :     0.000093
      dxy     :     0.000084
  2 C s       :    -0.000637  s :    -0.000637
      pz      :    -0.002511  p :    -0.003615
      px      :    -0.000336
      py      :    -0.000768
      dz2     :     0.000407  d :     0.001764
      dxz     :     0.001070
      dyz     :    -0.000041
      dx2y2   :     0.000090
      dxy     :     0.000238
  3 C s       :    -0.000240  s :    -0.000240
      pz      :     0.001193  p :     0.000802
      px      :    -0.000063
      py      :    -0.000328
      dz2     :     0.000025  d :     0.001187
      dxz     :    -0.000041
      dyz     :     0.000045
      dx2y2   :     0.001277
      dxy     :    -0.000119
  4 C s       :     0.000065  s :     0.000065
      pz      :    -0.001678  p :    -0.002921
      px      :     0.001487
      py      :    -0.002730
      dz2     :     0.000098  d :     0.000470
      dxz     :     0.000065
      dyz     :     0.000019
      dx2y2   :     0.000207
      dxy     :     0.000081
  5 C s       :     0.000725  s :     0.000725
      pz      :     0.007128  p :     0.013890
      px      :     0.002178
      py      :     0.004583
      dz2     :    -0.000042  d :    -0.000122
      dxz     :     0.000022
      dyz     :    -0.000035
      dx2y2   :    -0.000041
      dxy     :    -0.000026
  6 C s       :     0.000114  s :     0.000114
      pz      :     0.000272  p :     0.000425
      px      :    -0.000109
      py      :     0.000262
      dz2     :    -0.000029  d :     0.000109
      dxz     :     0.000062
      dyz     :     0.000004
      dx2y2   :     0.000005
      dxy     :     0.000066
  7 H s       :    -0.021240  s :    -0.021240
      pz      :     0.002929  p :     0.024779
      px      :     0.019018
      py      :     0.002832
  8 H s       :     0.001979  s :     0.001979
      pz      :    -0.000093  p :    -0.000155
      px      :    -0.000018
      py      :    -0.000045
  9 H s       :     0.001593  s :     0.001593
      pz      :     0.000050  p :    -0.000023
      px      :    -0.000001
      py      :    -0.000072
 10 H s       :     0.000186  s :     0.000186
      pz      :    -0.000001  p :    -0.000024
      px      :     0.000032
      py      :    -0.000054
 11 H s       :    -0.000568  s :    -0.000568
      pz      :     0.000211  p :     0.000455
      px      :     0.000095
      py      :     0.000149
 12 H s       :    -0.000058  s :    -0.000058
      pz      :     0.000000  p :     0.000045
      px      :     0.000025
      py      :     0.000020
 13 H s       :    -0.000015  s :    -0.000015
      pz      :     0.000008  p :    -0.000005
      px      :    -0.000011
      py      :    -0.000001


                      *****************************
                      * MAYER POPULATION ANALYSIS *
                      *****************************

  NA   - Mulliken gross atomic population
  ZA   - Total nuclear charge
  QA   - Mulliken gross atomic charge
  VA   - Mayer's total valence
  BVA  - Mayer's bonded valence
  FA   - Mayer's free valence

  ATOM       NA         ZA         QA         VA         BVA        FA
  0 O      8.2365     8.0000    -0.2365     2.0146     1.2176     0.7970
  1 O      8.2839     8.0000    -0.2839     2.0631     2.0539     0.0092
  2 C      5.9858     6.0000     0.0142     3.9926     3.9926     0.0000
  3 C      5.9280     6.0000     0.0720     3.9091     3.9091     0.0000
  4 C      5.9783     6.0000     0.0217     3.7907     3.7906     0.0000
  5 C      6.1343     6.0000    -0.1343     4.0037     4.0034     0.0002
  6 C      5.8911     6.0000     0.1089     3.8073     3.8073     0.0000
  7 H      0.8428     1.0000     0.1572     1.0141     1.0129     0.0012
  8 H      0.9566     1.0000     0.0434     1.0086     1.0086     0.0000
  9 H      0.9622     1.0000     0.0378     0.9884     0.9884     0.0000
 10 H      0.9638     1.0000     0.0362     0.9900     0.9900     0.0000
 11 H      0.9697     1.0000     0.0303     0.9879     0.9879     0.0000
 12 H      0.9372     1.0000     0.0628     0.9813     0.9813     0.0000
 13 H      0.9298     1.0000     0.0702     0.9836     0.9836     0.0000

  Mayer bond orders larger than 0.100000
B(  0-O ,  1-O ) :   0.1367 B(  0-O ,  7-H ) :   0.9983 B(  1-O ,  2-C ) :   0.9275 
B(  1-O ,  3-C ) :   0.9148 B(  2-C ,  3-C ) :   1.0109 B(  2-C ,  6-C ) :   1.0039 
B(  2-C ,  8-H ) :   0.9659 B(  3-C ,  4-C ) :   0.9777 B(  3-C ,  9-H ) :   0.9805 
B(  4-C ,  5-C ) :   1.8326 B(  4-C , 10-H ) :   0.9963 B(  5-C ,  6-C ) :   1.0236 
B(  5-C , 11-H ) :   0.9662 B(  6-C , 12-H ) :   0.9234 B(  6-C , 13-H ) :   0.9186 



------------------
HIRSHFELD ANALYSIS
------------------

Total integrated alpha density =     27.000017566
Total integrated beta density  =     26.000019701

  ATOM     CHARGE      SPIN    
   0 O   -0.240212    0.850067
   1 O   -0.136588    0.101187
   2 C    0.051038    0.000905
   3 C    0.041307    0.003779
   4 C   -0.053327    0.000229
   5 C   -0.020322    0.012406
   6 C   -0.039458    0.001578
   7 H    0.136197    0.025789
   8 H    0.045100    0.001731
   9 H    0.047476    0.001263
  10 H    0.048732    0.000103
  11 H    0.033563    0.000719
  12 H    0.040132    0.000177
  13 H    0.046325    0.000066

  TOTAL  -0.000037    0.999998

-------
TIMINGS
-------

Total SCF time: 0 days 0 hours 0 min 10 sec 

Total time                  ....      10.690 sec
Sum of individual times     ....      10.538 sec  ( 98.6%)

Fock matrix formation       ....       9.591 sec  ( 89.7%)
  Split-RI-J                ....       0.816 sec  (  8.5% of F)
  Chain of spheres X        ....       6.359 sec  ( 66.3% of F)
  XC integration            ....       2.324 sec  ( 24.2% of F)
    Basis function eval.    ....       0.631 sec  ( 27.1% of XC)
    Density eval.           ....       0.600 sec  ( 25.8% of XC)
    XC-Functional eval.     ....       0.215 sec  (  9.3% of XC)
    XC-Potential eval.      ....       0.674 sec  ( 29.0% of XC)
Diagonalization             ....       0.177 sec  (  1.7%)
Density matrix formation    ....       0.009 sec  (  0.1%)
Population analysis         ....       0.134 sec  (  1.3%)
Initial guess               ....       0.037 sec  (  0.3%)
Orbital Transformation      ....       0.000 sec  (  0.0%)
Orbital Orthonormalization  ....       0.000 sec  (  0.0%)
DIIS solution               ....       0.125 sec  (  1.2%)
Grid generation             ....       0.465 sec  (  4.3%)

Maximum memory used throughout the entire SCF-calculation: 50.7 MB


-------------------------------------------------------------------------------
                          DFT DISPERSION CORRECTION                            
                                                                               
                              DFTD3 V3.1  Rev 1                                
                          USING Becke-Johnson damping                          
-------------------------------------------------------------------------------
The PBE0 functional is recognized
Active option DFTDOPT                   ...         4   

molecular C6(AA) [au] = 1728.516430 


            DFT-D V3
 parameters
 s6 scaling factor         :     1.0000 
 a1 scaling factor         :     0.4145 
 s8 scaling factor         :     1.2177 
 a2 scaling factor         :     4.8593 
 ad hoc parameters k1-k3   :    16.0000     1.3333    -4.0000 

 Edisp/kcal,au: -6.066610708493  -0.009667758515 
 E6   /kcal   :  -3.860662721 
 E8   /kcal   :  -2.205947988 
 % E8         :  36.362115418 

-------------------------   ----------------
Dispersion correction           -0.009667759
-------------------------   ----------------


-------------------------   --------------------
FINAL SINGLE POINT ENERGY      -344.363248349127
-------------------------   --------------------



           ************************************************************
           *        Program running with 8 parallel MPI-processes     *
           *              working on a common directory               *
           ************************************************************
------------------------------------------------------------------------------
                         ORCA SCF GRADIENT CALCULATION
------------------------------------------------------------------------------

 ... reading COSX grid (gridx3)
Gradient of the Kohn-Sham DFT energy:
Kohn-Sham wavefunction type      ... UKS
Hartree-Fock exchange scaling    ...    0.250
Number of operators              ...    2
Number of atoms                  ...   14
Basis set dimensions             ...  133
Integral neglect threshold       ... 2.5e-11
Integral primitive cutoff        ... 2.5e-12
SHARK Integral package           ... ON

Nuc. rep. gradient       (SHARK) ... done (  0.0 sec)
HCore & Overlap gradient (SHARK) ... done (  0.0 sec)
RI-J gradient            (SHARK) ... done (  0.1 sec)
COSX-gradient                    ... done (  0.9 sec)
Exchange-correlation gradient    ... done
Dispersion correction            ... done

------------------
CARTESIAN GRADIENT
------------------

   1   O   :    0.010228259    0.003472897   -0.001592015
   2   O   :    0.040365466   -0.010931389   -0.037114143
   3   C   :    0.008797352   -0.003118030   -0.002497889
   4   C   :    0.008458640   -0.003320860   -0.004628057
   5   C   :   -0.008717178   -0.005202946   -0.000379005
   6   C   :   -0.054893367    0.019843571    0.040245854
   7   C   :   -0.000713692    0.001149713    0.005675965
   8   H   :   -0.003158181   -0.002110720   -0.000481519
   9   H   :    0.000402383   -0.000623470    0.000439716
  10   H   :    0.000393893   -0.000052761    0.000091879
  11   H   :    0.000066120    0.000246773    0.000413822
  12   H   :   -0.000402165    0.000577611    0.000019450
  13   H   :   -0.000670138    0.000000080   -0.000018282
  14   H   :   -0.000247792    0.000042719   -0.000208633

Difference to translation invariance:
           :   -0.0000903991   -0.0000268119   -0.0000328569

Difference to rotation invariance:
           :    0.0000404559    0.0001964483    0.0000050404

Norm of the cartesian gradient     ...    0.0928642991
[...]
      px      :     0.956805
      py      :     0.957087
      dz2     :     0.007711  d :     0.038255
      dxz     :     0.007214
      dyz     :     0.005653
      dx2y2   :     0.007995
      dxy     :     0.009682
  6 C s       :     2.925150  s :     2.925150
      pz      :     0.980025  p :     2.926682
      px      :     0.941625
      py      :     1.005032
      dz2     :     0.008047  d :     0.035994
      dxz     :     0.008140
      dyz     :     0.005473
      dx2y2   :     0.007292
      dxy     :     0.007044
  7 H s       :     0.760106  s :     0.760106
      pz      :     0.022875  p :     0.066769
      px      :     0.014634
      py      :     0.029260
  8 H s       :     0.914797  s :     0.914797
      pz      :     0.002523  p :     0.022700
      px      :     0.015156
      py      :     0.005021
  9 H s       :     0.922000  s :     0.922000
      pz      :     0.007501  p :     0.022919
      px      :     0.004203
      py      :     0.011215
 10 H s       :     0.938907  s :     0.938907
      pz      :     0.007950  p :     0.024375
      px      :     0.011601
      py      :     0.004824
 11 H s       :     0.945293  s :     0.945293
      pz      :     0.004664  p :     0.023437
      px      :     0.010255
      py      :     0.008518
 12 H s       :     0.911871  s :     0.911871
      pz      :     0.013072  p :     0.023272
      px      :     0.004417
      py      :     0.005783
 13 H s       :     0.915468  s :     0.915468
      pz      :     0.004279  p :     0.023170
      px      :     0.005661
      py      :     0.013230

SPIN
  0 O s       :     0.012737  s :     0.012737
      pz      :     0.218285  p :     0.887718
      px      :     0.570947
      py      :     0.098485
      dz2     :     0.000052  d :     0.000277
      dxz     :     0.000209
      dyz     :    -0.000090
      dx2y2   :    -0.000012
      dxy     :     0.000117
  1 O s       :     0.005694  s :     0.005694
      pz      :     0.022397  p :     0.116973
      px      :     0.078352
      py      :     0.016224
      dz2     :    -0.000085  d :     0.000150
      dxz     :     0.000237
      dyz     :     0.000013
      dx2y2   :     0.000114
      dxy     :    -0.000130
  2 C s       :    -0.000394  s :    -0.000394
      pz      :    -0.005474  p :    -0.007484
      px      :    -0.000511
      py      :    -0.001498
      dz2     :     0.000181  d :     0.000510
      dxz     :     0.000164
      dyz     :    -0.000016
      dx2y2   :     0.000003
      dxy     :     0.000177
  3 C s       :    -0.000533  s :    -0.000533
      pz      :    -0.001946  p :    -0.007757
      px      :    -0.001834
      py      :    -0.003977
      dz2     :     0.000041  d :     0.000364
      dxz     :    -0.000014
      dyz     :     0.000016
      dx2y2   :     0.000300
      dxy     :     0.000021
  4 C s       :     0.000682  s :     0.000682
      pz      :     0.003810  p :     0.008771
      px      :     0.002581
      py      :     0.002380
      dz2     :    -0.000013  d :    -0.000019
      dxz     :     0.000000
      dyz     :    -0.000020
      dx2y2   :     0.000022
      dxy     :    -0.000008
  5 C s       :     0.001237  s :     0.001237
      pz      :     0.000422  p :     0.002017
      px      :     0.000261
      py      :     0.001334
      dz2     :     0.000029  d :     0.000053
      dxz     :     0.000027
      dyz     :     0.000008
      dx2y2   :    -0.000009
      dxy     :    -0.000002
  6 C s       :    -0.000175  s :    -0.000175
      pz      :     0.000721  p :     0.000560
      px      :    -0.000343
      py      :     0.000182
      dz2     :    -0.000046  d :    -0.000014
      dxz     :     0.000027
      dyz     :    -0.000005
      dx2y2   :    -0.000007
      dxy     :     0.000017
  7 H s       :    -0.029604  s :    -0.029604
      pz      :     0.001803  p :     0.005574
      px      :     0.003653
      py      :     0.000118
  8 H s       :     0.002177  s :     0.002177
      pz      :    -0.000022  p :    -0.000033
      px      :    -0.000004
      py      :    -0.000007
  9 H s       :     0.001175  s :     0.001175
      pz      :    -0.000023  p :    -0.000037
      px      :     0.000001
      py      :    -0.000014
 10 H s       :    -0.000488  s :    -0.000488
      pz      :     0.000052  p :     0.000060
      px      :    -0.000000
      py      :     0.000009
 11 H s       :    -0.000118  s :    -0.000118
      pz      :     0.000016  p :     0.000043
      px      :     0.000006
      py      :     0.000021
 12 H s       :     0.000089  s :     0.000089
      pz      :    -0.000001  p :     0.000002
      px      :    -0.000000
      py      :     0.000003
 13 H s       :    -0.000202  s :    -0.000202
      pz      :    -0.000001  p :    -0.000003
      px      :    -0.000002
      py      :     0.000000


                     *******************************
                     * LOEWDIN POPULATION ANALYSIS *
                     *******************************

-------------------------------------------
LOEWDIN ATOMIC CHARGES AND SPIN POPULATIONS
-------------------------------------------
   0 O :   -0.151872    0.861379
   1 O :   -0.106712    0.131124
   2 C :    0.053404   -0.002768
   3 C :    0.054386   -0.004531
   4 C :   -0.055570    0.007715
   5 C :   -0.006392    0.002668
   6 C :   -0.048063    0.000591
   7 H :    0.052657    0.002383
   8 H :    0.027574    0.001030
   9 H :    0.029358    0.000521
  10 H :    0.034699    0.000127
  11 H :    0.025295   -0.000002
  12 H :    0.044990   -0.000047
  13 H :    0.046246   -0.000189

----------------------------------------------------
LOEWDIN REDUCED ORBITAL CHARGES AND SPIN POPULATIONS
----------------------------------------------------
CHARGE
  0 O s       :     3.681466  s :     3.681466
      pz      :     1.526174  p :     4.458724
      px      :     1.378835
      py      :     1.553716
      dz2     :     0.000255  d :     0.011681
      dxz     :     0.000564
      dyz     :     0.007147
      dx2y2   :     0.003124
      dxy     :     0.000591
  1 O s       :     3.545939  s :     3.545939
      pz      :     1.431584  p :     4.525044
      px      :     1.625192
      py      :     1.468268
      dz2     :     0.009422  d :     0.035729
      dxz     :     0.004438
      dyz     :     0.010584
      dx2y2   :     0.005307
      dxy     :     0.005978
  2 C s       :     2.853718  s :     2.853718
      pz      :     0.867571  p :     2.927256
      px      :     1.055484
      py      :     1.004200
      dz2     :     0.043285  d :     0.165623
      dxz     :     0.040391
      dyz     :     0.043018
      dx2y2   :     0.016571
      dxy     :     0.022358
  3 C s       :     2.858355  s :     2.858355
      pz      :     1.018164  p :     2.927292
      px      :     0.997853
      py      :     0.911275
      dz2     :     0.019188  d :     0.159966
      dxz     :     0.025068
      dyz     :     0.029665
      dx2y2   :     0.045251
      dxy     :     0.040794
  4 C s       :     2.875003  s :     2.875003
      pz      :     1.031356  p :     3.089992
      px      :     1.023143
      py      :     1.035494
      dz2     :     0.012049  d :     0.090575
      dxz     :     0.019949
      dyz     :     0.013720
      dx2y2   :     0.023681
      dxy     :     0.021175
  5 C s       :     2.879628  s :     2.879628
      pz      :     0.995896  p :     3.032587
      px      :     1.000599
      py      :     1.036092
      dz2     :     0.016183  d :     0.094176
      dxz     :     0.018644
      dyz     :     0.014776
      dx2y2   :     0.020572
      dxy     :     0.024001
  6 C s       :     2.837615  s :     2.837615
      pz      :     1.038209  p :     3.116910
      px      :     1.026948
      py      :     1.051753
      dz2     :     0.020919  d :     0.093538
      dxz     :     0.022148
      dyz     :     0.013399
      dx2y2   :     0.019150
      dxy     :     0.017922
  7 H s       :     0.765689  s :     0.765689
      pz      :     0.063534  p :     0.181654
      px      :     0.038109
      py      :     0.080011
  8 H s       :     0.900082  s :     0.900082
      pz      :     0.010723  p :     0.072344
      px      :     0.044652
      py      :     0.016969
  9 H s       :     0.898790  s :     0.898790
      pz      :     0.023001  p :     0.071852
      px      :     0.015183
      py      :     0.033668
 10 H s       :     0.893867  s :     0.893867
      pz      :     0.022957  p :     0.071434
      px      :     0.034141
      py      :     0.014336
 11 H s       :     0.905296  s :     0.905296
      pz      :     0.014949  p :     0.069409
      px      :     0.030751
      py      :     0.023709
 12 H s       :     0.888256  s :     0.888256
      pz      :     0.037203  p :     0.066754
      px      :     0.013384
      py      :     0.016167
 13 H s       :     0.886584  s :     0.886584
      pz      :     0.012409  p :     0.067170
      px      :     0.017142
      py      :     0.037619

SPIN
  0 O s       :     0.009519  s :     0.009519
      pz      :     0.208616  p :     0.851804
      px      :     0.553102
      py      :     0.090086
      dz2     :     0.000008  d :     0.000056
      dxz     :     0.000192
      dyz     :    -0.000203
      dx2y2   :     0.000056
      dxy     :     0.000003
  1 O s       :     0.006935  s :     0.006935
      pz      :     0.023312  p :     0.124017
      px      :     0.084357
      py      :     0.016349
      dz2     :    -0.000107  d :     0.000171
      dxz     :     0.000228
      dyz     :     0.000023
      dx2y2   :     0.000107
      dxy     :    -0.000081
  2 C s       :    -0.000240  s :    -0.000240
      pz      :    -0.002730  p :    -0.003945
      px      :     0.000046
      py      :    -0.001261
      dz2     :     0.000610  d :     0.001418
      dxz     :     0.000452
      dyz     :    -0.000005
      dx2y2   :     0.000038
      dxy     :     0.000324
  3 C s       :    -0.000442  s :    -0.000442
      pz      :    -0.001753  p :    -0.005096
      px      :    -0.000558
      py      :    -0.002785
      dz2     :     0.000058  d :     0.001008
      dxz     :     0.000004
      dyz     :     0.000091
      dx2y2   :     0.000731
      dxy     :     0.000124
  4 C s       :     0.000315  s :     0.000315
      pz      :     0.004161  p :     0.007382
      px      :     0.001598
      py      :     0.001623
      dz2     :    -0.000032  d :     0.000018
      dxz     :    -0.000009
      dyz     :    -0.000028
      dx2y2   :     0.000077
      dxy     :     0.000010
  5 C s       :     0.000611  s :     0.000611
      pz      :     0.000580  p :     0.001878
      px      :     0.000894
      py      :     0.000403
      dz2     :     0.000062  d :     0.000179
      dxz     :     0.000123
      dyz     :     0.000032
      dx2y2   :    -0.000006
      dxy     :    -0.000033
  6 C s       :     0.000211  s :     0.000211
      pz      :     0.000482  p :     0.000393
      px      :    -0.000158
      py      :     0.000068
      dz2     :    -0.000074  d :    -0.000012
      dxz     :     0.000053
      dyz     :    -0.000012
      dx2y2   :    -0.000018
      dxy     :     0.000038
  7 H s       :    -0.019734  s :    -0.019734
      pz      :     0.007294  p :     0.022117
      px      :     0.012358
      py      :     0.002465
  8 H s       :     0.001128  s :     0.001128
      pz      :    -0.000126  p :    -0.000099
      px      :     0.000069
      py      :    -0.000042
  9 H s       :     0.000649  s :     0.000649
      pz      :    -0.000042  p :    -0.000128
      px      :    -0.000012
      py      :    -0.000073
 10 H s       :    -0.000129  s :    -0.000129
      pz      :     0.000144  p :     0.000256
      px      :     0.000052
      py      :     0.000061
 11 H s       :    -0.000112  s :    -0.000112
      pz      :     0.000052  p :     0.000110
      px      :     0.000048
      py      :     0.000010
 12 H s       :    -0.000057  s :    -0.000057
      pz      :     0.000003  p :     0.000010
      px      :    -0.000005
      py      :     0.000012
 13 H s       :    -0.000188  s :    -0.000188
      pz      :     0.000013  p :    -0.000001
      px      :    -0.000011
      py      :    -0.000003


                      *****************************
                      * MAYER POPULATION ANALYSIS *
                      *****************************

  NA   - Mulliken gross atomic population
  ZA   - Total nuclear charge
  QA   - Mulliken gross atomic charge
  VA   - Mayer's total valence
  BVA  - Mayer's bonded valence
  FA   - Mayer's free valence

  ATOM       NA         ZA         QA         VA         BVA        FA
  0 O      8.2585     8.0000    -0.2585     2.0314     1.2713     0.7601
  1 O      8.3054     8.0000    -0.3054     2.0840     2.0683     0.0158
  2 C      6.0015     6.0000    -0.0015     3.9888     3.9888     0.0000
  3 C      5.9160     6.0000     0.0840     3.8955     3.8954     0.0000
  4 C      5.9753     6.0000     0.0247     3.7777     3.7776     0.0001
  5 C      6.1403     6.0000    -0.1403     3.9911     3.9911     0.0000
  6 C      5.8878     6.0000     0.1122     3.7971     3.7971     0.0000
  7 H      0.8269     1.0000     0.1731     1.0099     1.0087     0.0012
  8 H      0.9375     1.0000     0.0625     1.0112     1.0112     0.0000
  9 H      0.9449     1.0000     0.0551     1.0113     1.0113     0.0000
 10 H      0.9633     1.0000     0.0367     0.9898     0.9898     0.0000
 11 H      0.9687     1.0000     0.0313     0.9880     0.9880     0.0000
 12 H      0.9351     1.0000     0.0649     0.9810     0.9810     0.0000
 13 H      0.9386     1.0000     0.0614     0.9831     0.9831     0.0000

  Mayer bond orders larger than 0.100000
B(  0-O ,  1-O ) :   0.1740 B(  0-O ,  7-H ) :   0.9856 B(  1-O ,  2-C ) :   0.9236 
B(  1-O ,  3-C ) :   0.8937 B(  2-C ,  3-C ) :   1.0225 B(  2-C ,  6-C ) :   0.9954 
B(  2-C ,  8-H ) :   0.9666 B(  3-C ,  4-C ) :   0.9688 B(  3-C ,  9-H ) :   0.9773 
B(  4-C ,  5-C ) :   1.8329 B(  4-C , 10-H ) :   0.9957 B(  5-C ,  6-C ) :   1.0206 
B(  5-C , 11-H ) :   0.9666 B(  6-C , 12-H ) :   0.9245 B(  6-C , 13-H ) :   0.9232 



------------------
HIRSHFELD ANALYSIS
------------------

Total integrated alpha density =     27.000015465
Total integrated beta density  =     26.000016429

  ATOM     CHARGE      SPIN    
   0 O   -0.241477    0.828868
   1 O   -0.139972    0.130312
   2 C    0.051461    0.001925
   3 C    0.045226    0.000671
   4 C   -0.052568    0.007171
   5 C   -0.024065    0.004190
   6 C   -0.041343    0.001092
   7 H    0.142931    0.022513
   8 H    0.048308    0.001626
   9 H    0.050908    0.000950
  10 H    0.047197    0.000583
  11 H    0.032888    0.000182
  12 H    0.039918    0.000027
  13 H    0.040556   -0.000112

  TOTAL  -0.000032    0.999999

-------
TIMINGS
-------

Total SCF time: 0 days 0 hours 0 min 7 sec 

Total time                  ....       7.274 sec
Sum of individual times     ....       7.135 sec  ( 98.1%)

Fock matrix formation       ....       6.364 sec  ( 87.5%)
  Split-RI-J                ....       0.542 sec  (  8.5% of F)
  Chain of spheres X        ....       4.484 sec  ( 70.5% of F)
  XC integration            ....       1.281 sec  ( 20.1% of F)
    Basis function eval.    ....       0.393 sec  ( 30.6% of XC)
    Density eval.           ....       0.343 sec  ( 26.8% of XC)
    XC-Functional eval.     ....       0.129 sec  ( 10.1% of XC)
    XC-Potential eval.      ....       0.296 sec  ( 23.1% of XC)
Diagonalization             ....       0.104 sec  (  1.4%)
Density matrix formation    ....       0.006 sec  (  0.1%)
Population analysis         ....       0.155 sec  (  2.1%)
Initial guess               ....       0.008 sec  (  0.1%)
Orbital Transformation      ....       0.000 sec  (  0.0%)
Orbital Orthonormalization  ....       0.004 sec  (  0.1%)
DIIS solution               ....       0.069 sec  (  0.9%)
Grid generation             ....       0.429 sec  (  5.9%)

Maximum memory used throughout the entire SCF-calculation: 50.7 MB


-------------------------------------------------------------------------------
                          DFT DISPERSION CORRECTION                            
                                                                               
                              DFTD3 V3.1  Rev 1                                
                          USING Becke-Johnson damping                          
-------------------------------------------------------------------------------
The PBE0 functional is recognized
Active option DFTDOPT                   ...         4   

molecular C6(AA) [au] = 1732.655308 


            DFT-D V3
 parameters
 s6 scaling factor         :     1.0000 
 a1 scaling factor         :     0.4145 
 s8 scaling factor         :     1.2177 
 a2 scaling factor         :     4.8593 
 ad hoc parameters k1-k3   :    16.0000     1.3333    -4.0000 

 Edisp/kcal,au: -6.137207422771  -0.009780261529 
 E6   /kcal   :  -3.904878540 
 E8   /kcal   :  -2.232328883 
 % E8         :  36.373691305 

-------------------------   ----------------
Dispersion correction           -0.009780262
-------------------------   ----------------


-------------------------   --------------------
FINAL SINGLE POINT ENERGY      -344.371190238544
-------------------------   --------------------

                                *** OPTIMIZATION RUN DONE ***

                            ***************************************
                            *     ORCA property calculations      *
                            ***************************************

                                    ---------------------
                                    Active property flags
                                    ---------------------
   (+) Dipole Moment


------------------------------------------------------------------------------
                       ORCA ELECTRIC PROPERTIES CALCULATION
------------------------------------------------------------------------------

Dipole Moment Calculation                       ... on
Quadrupole Moment Calculation                   ... off
Polarizability Calculation                      ... off
GBWName                                         ... path_opt5_orca.gbw
Electron density                                ... path_opt5_orca.scfp
The origin for moment calculation is the CENTER OF MASS  = (-0.300591,  0.115055  0.404066)

-------------
DIPOLE MOMENT
-------------
                                X             Y             Z
Electronic contribution:     -0.92052       0.63879       1.92319
Nuclear contribution   :      1.39098      -0.83919      -2.30595
                        -----------------------------------------
Total Dipole Moment    :      0.47045      -0.20039      -0.38276
                        -----------------------------------------
Magnitude (a.u.)       :      0.63874
Magnitude (Debye)      :      1.62355



--------------------
Rotational spectrum 
--------------------
 
Rotational constants in cm-1:     0.202292     0.070171     0.059519 
Rotational constants in MHz :  6064.560001  2103.663122  1784.346734 

 Dipole components along the rotational axes: 
x,y,z [a.u.] :     0.632624     0.075817     0.045008 
x,y,z [Debye]:     1.608003     0.192711     0.114401 

 

Timings for individual modules:

Sum of individual times         ...      166.735 sec (=   2.779 min)
GTO integral calculation        ...        6.145 sec (=   0.102 min)   3.7 %
SCF iterations                  ...      131.864 sec (=   2.198 min)  79.1 %
SCF Gradient evaluation         ...       28.296 sec (=   0.472 min)  17.0 %
Geometry relaxation             ...        0.431 sec (=   0.007 min)   0.3 %
                             ****ORCA TERMINATED NORMALLY****
TOTAL RUN TIME: 0 days 0 hours 2 minutes 51 seconds 763 msec
