      -----------------------------------------------------------      
     |                   =====================                   |     
     |                           x T B                           |     
     |                   =====================                   |     
     |                         S. Grimme                         |     
     |          Mulliken Center for Theoretical Chemistry        |     
     |                    University of Bonn                     |     
      -----------------------------------------------------------      

   * xtb version 6.6.1 (8d0f1dd) compiled by 'conda@1efc2f54142f' on 2023-08-01

   xtb is free software: you can redistribute it and/or modify it under
   the terms of the GNU Lesser General Public License as published by
   the Free Software Foundation, either version 3 of the License, or
   (at your option) any later version.
   
   xtb is distributed in the hope that it will be useful,
   but WITHOUT ANY WARRANTY; without even the implied warranty of
   MERCHANTABILITY or FITNESS FOR A PARTICULAR PURPOSE.  See the
   GNU Lesser General Public License for more details.
   
   Cite this work as:
   * C. Bannwarth, E. Caldeweyher, S. Ehlert, A. Hansen, P. Pracht,
     J. Seibert, S. Spicher, S. Grimme, WIREs Comput. Mol. Sci., 2020, 11,
     e01493. DOI: 10.1002/wcms.1493
   
   for GFN2-xTB:
   * C. Bannwarth, S. Ehlert and S. Grimme., J. Chem. Theory Comput., 2019,
     15, 1652-1671. DOI: 10.1021/acs.jctc.8b01176
   for GFN1-xTB:
   * S. Grimme, C. Bannwarth, P. Shushkov, J. Chem. Theory Comput., 2017,
     13, 1989-2009. DOI: 10.1021/acs.jctc.7b00118
   for GFN0-xTB:
   * P. Pracht, E. Caldeweyher, S. Ehlert, S. Grimme, ChemRxiv, 2019, preprint.
     DOI: 10.26434/chemrxiv.8326202.v1
   for GFN-FF:
   * S. Spicher and S. Grimme, Angew. Chem. Int. Ed., 2020, 59, 15665-15673.
     DOI: 10.1002/anie.202004239
   
   for ALPB and GBSA implicit solvation:
   * S. Ehlert, M. Stahn, S. Spicher, S. Grimme, J. Chem. Theory Comput.,
     2021, 17, 4250-4261. DOI: 10.1021/acs.jctc.1c00471
   
   for DFT-D4:
   * E. Caldeweyher, C. Bannwarth and S. Grimme, J. Chem. Phys., 2017,
     147, 034112. DOI: 10.1063/1.4993215
   * E. Caldeweyher, S. Ehlert, A. Hansen, H. Neugebauer, S. Spicher,
     C. Bannwarth and S. Grimme, J. Chem. Phys., 2019, 150, 154122.
     DOI: 10.1063/1.5090222
   * E. Caldeweyher, J.-M. Mewes, S. Ehlert and S. Grimme, Phys. Chem. Chem. Phys.
     2020, 22, 8499-8512. DOI: 10.1039/D0CP00502A
   
   for sTDA-xTB:
   * S. Grimme and C. Bannwarth, J. Chem. Phys., 2016, 145, 054103.
     DOI: 10.1063/1.4959605
   
   in the mass-spec context:
   * V. Asgeirsson, C. Bauer and S. Grimme, Chem. Sci., 2017, 8, 4879.
     DOI: 10.1039/c7sc00601b
   * J. Koopman and S. Grimme, ACS Omega 2019, 4, 12, 15120-15133.
     DOI: 10.1021/acsomega.9b02011
   
   for metadynamics refer to:
   * S. Grimme, J. Chem. Theory Comput., 2019, 155, 2847-2862
     DOI: 10.1021/acs.jctc.9b00143
   
   for SPH calculations refer to:
   * S. Spicher and S. Grimme, J. Chem. Theory Comput., 2021, 17, 1701-1714
     DOI: 10.1021/acs.jctc.0c01306
   
   with help from (in alphabetical order)
   P. Atkinson, C. Bannwarth, F. Bohle, G. Brandenburg, E. Caldeweyher
   M. Checinski, S. Dohm, S. Ehlert, S. Ehrlich, I. Gerasimov, C. Hölzer
   A. Katbashev, J. Koopman, C. Lavigne, S. Lehtola, F. März, M. Müller,
   F. Musil, H. Neugebauer, J. Pisarek, C. Plett, P. Pracht, F. Pultar,
   J. Seibert, P. Shushkov, S. Spicher, M. Stahn, M. Steiner, T. Strunk,
   J. Stückrath, T. Rose, and J. Unsleber
   
 * started run on 2025/05/23 at 12:05:47.128     

           -------------------------------------------------
          |                Calculation Setup                |
           -------------------------------------------------

          program call               : /gpfs/fs1/home/copan/code/autode-practice/.pixi/envs/default/bin/xtb path_opt7_xtb.xyz --chrg 0 --uhf 1 --opt --input xcontrol_path_opt7_xtb
          hostname                   : csed-0029
          coordinate file            : path_opt7_xtb.xyz
          omp threads                :                     8

   ID    Z sym.   atoms
    1    8 O      1, 2
    2    6 C      3-7
    3    1 H      8-14
constraining bond 2 6 to    2.2184000 Å, actual value:    2.2702040 Å
constraining bond 1 2 to    2.8532000 Å, actual value:    2.6427961 Å

molecular fragmentation (1/2 indicates fragments):
12222221222222
# atoms in fragment 1/2:     2    12
 fragment masses (1/2) :       17.01       82.10
CMA distance (Bohr)    :   6.758
constraining FC (au)   :  2.0000

           -------------------------------------------------
          |                 G F N 2 - x T B                 |
           -------------------------------------------------

        Reference                      10.1021/acs.jctc.8b01176
      * Hamiltonian:
        H0-scaling (s, p, d)           1.850000    2.230000    2.230000
        zeta-weighting                 0.500000
      * Dispersion:
        s8                             2.700000
        a1                             0.520000
        a2                             5.000000
        s9                             5.000000
      * Repulsion:
        kExp                           1.500000    1.000000
        rExp                           1.000000
      * Coulomb:
        alpha                          2.000000
        third order                    shell-resolved
        anisotropic                    true
        a3                             3.000000
        a5                             4.000000
        cn-shift                       1.200000
        cn-exp                         4.000000
        max-rad                        5.000000


          ...................................................
          :                      SETUP                      :
          :.................................................:
          :  # basis functions                  35          :
          :  # atomic orbitals                  35          :
          :  # shells                           21          :
          :  # electrons                        39          :
          :  max. iterations                   250          :
          :  Hamiltonian                  GFN2-xTB          :
          :  restarted?                      false          :
          :  GBSA solvation                  false          :
          :  PC potential                    false          :
          :  electronic temp.          300.0000000     K    :
          :  accuracy                    1.0000000          :
          :  -> integral cutoff          0.2500000E+02      :
          :  -> integral neglect         0.1000000E-07      :
          :  -> SCF convergence          0.1000000E-05 Eh   :
          :  -> wf. convergence          0.1000000E-03 e    :
          :  Broyden damping             0.4000000          :
          ...................................................

 iter      E             dE          RMSdq      gap      omega  full diag
   1    -22.2179506 -0.222180E+02  0.521E+00    4.41       0.0  T
   2    -20.2856000  0.193235E+01  0.897E+00    0.05       1.0  T
   3    -22.2131286 -0.192753E+01  0.405E+00    4.45       1.0  T
   4    -22.3017882 -0.886597E-01  0.260E+00    4.25       1.0  T
   5    -22.4456777 -0.143889E+00  0.144E+00    4.02       1.0  T
   6    -22.4486934 -0.301568E-02  0.128E+00    4.02       1.0  T
   7    -22.4557712 -0.707780E-02  0.744E-01    4.04       1.0  T
   8    -22.4567594 -0.988161E-03  0.156E-01    4.00       1.0  T
   9    -22.4564629  0.296464E-03  0.149E-01    4.00       1.0  T
  10    -22.4564817 -0.188104E-04  0.129E-01    4.00       1.0  T
  11    -22.4567794 -0.297699E-03  0.527E-02    3.98       1.0  T
  12    -22.4567459  0.335251E-04  0.636E-02    3.98       1.0  T
  13    -22.4567943 -0.484651E-04  0.249E-02    3.98       1.1  T
  14    -22.4568027 -0.831167E-05  0.148E-02    3.98       1.8  T
  15    -22.4568058 -0.314214E-05  0.515E-03    3.98       5.2  T
  16    -22.4568060 -0.212115E-06  0.144E-03    3.98      18.5  T
  17    -22.4568059  0.659487E-07  0.228E-03    3.98      11.7  T
  18    -22.4568060 -0.888064E-07  0.251E-04    3.98     106.6  T
  19    -22.4568060 -0.563976E-09  0.186E-04    3.98     143.3  T

   *** convergence criteria satisfied after 19 iterations ***

         #    Occupation            Energy/Eh            Energy/eV
      -------------------------------------------------------------
         1        2.0000           -0.7366740             -20.0459
       ...           ...                  ...                  ...
        14        2.0000           -0.4876741             -13.2703
        15        2.0000           -0.4792622             -13.0414
        16        2.0000           -0.4587444             -12.4831
        17        2.0000           -0.4386921             -11.9374
        18        1.9992           -0.4066091             -11.0644
        19        1.9928           -0.4044951             -11.0069
        20        1.0080           -0.3952287             -10.7547 (HOMO)
        21                         -0.2489514              -6.7743 (LUMO)
        22                         -0.0924748              -2.5164
        23                          0.0597303               1.6253
        24                          0.0732011               1.9919
        25                          0.0934848               2.5439
       ...                                ...                  ...
        35                          0.6206987              16.8901
      -------------------------------------------------------------
                  HL-Gap            0.1462773 Eh            3.9804 eV
             Fermi-level           -0.3609513 Eh           -9.8220 eV

 SCC (total)                   0 d,  0 h,  0 min,  0.013 sec
 SCC setup                      ...        0 min,  0.000 sec (  1.469%)
 Dispersion                     ...        0 min,  0.000 sec (  0.924%)
 classical contributions        ...        0 min,  0.000 sec (  1.127%)
 integral evaluation            ...        0 min,  0.000 sec (  3.380%)
 iterations                     ...        0 min,  0.011 sec ( 84.885%)
 molecular gradient             ...        0 min,  0.001 sec (  6.564%)
 printout                       ...        0 min,  0.000 sec (  1.492%)

         :::::::::::::::::::::::::::::::::::::::::::::::::::::
         ::                     SUMMARY                     ::
         :::::::::::::::::::::::::::::::::::::::::::::::::::::
         :: total energy             -21.860012424299 Eh    ::
         :: gradient norm              2.488038777102 Eh/a0 ::
         :: HOMO-LUMO gap              3.980407119118 eV    ::
         ::.................................................::
         :: SCC energy               -22.456806033860 Eh    ::
         :: -> isotropic ES            0.053513517543 Eh    ::
         :: -> anisotropic ES         -0.004975535589 Eh    ::
         :: -> anisotropic XC          0.003950814743 Eh    ::
         :: -> dispersion             -0.008155198868 Eh    ::
         :: repulsion energy           0.261435986818 Eh    ::
         :: add. restraining           0.335347689363 Eh    ::
         :: total charge               0.000000000000 e     ::
         :::::::::::::::::::::::::::::::::::::::::::::::::::::

      ----------------------------------------------------------- 
     |                   =====================                   |
     |                        A N C O P T                        |
     |                   =====================                   |
     |               Approximate Normal Coordinate               |
     |                Rational Function Optimizer                |
      ----------------------------------------------------------- 

          ...................................................
          :                      SETUP                      :
          :.................................................:
          :   optimization level            normal          :
          :   max. optcycles                   200          :
          :   ANC micro-cycles                  20          :
          :   degrees of freedom                36          :
          :.................................................:
          :   RF solver                   davidson          :
          :   write xtbopt.log                true          :
          :   linear?                        false          :
          :   energy convergence         0.5000000E-05 Eh   :
          :   grad. convergence          0.1000000E-02 Eh/α :
          :   maxmium RF displ.          1.0000000          :
          :   Hlow (freq-cutoff)         0.1000000E-01      :
          :   Hmax (freq-cutoff)         5.0000000          :
          :   S6 in model hess.         20.0000000          :
          ...................................................

generating ANC from model Hessian ...
Using Lindh-Hessian (1995)
 Shifting diagonal of input Hessian by   0.46946964567405186     
 Lowest  eigenvalues of input Hessian
    0.010000    0.228939    0.000000    0.000000    0.000000    0.000000
    0.000000    0.000000    0.472259    0.473182    0.491857    0.496601
    0.511729    0.526913    0.530842    0.544990    0.551475    0.565102
 Highest eigenvalues
    1.910212    2.062463    2.280980    2.436893    5.338442   12.400167


........................................................................
.............................. CYCLE    1 ..............................
........................................................................

 iter      E             dE          RMSdq      gap      omega  full diag
   1    -22.4568060 -0.224568E+02  0.323E-05    3.98       0.0  T
   2    -22.4568060  0.803261E-09  0.194E-04    3.98     137.8  T
   3    -22.4568060 -0.802654E-09  0.297E-05    3.98     899.1  T
     SCC iter.                  ...        0 min,  0.002 sec
     gradient                   ...        0 min,  0.001 sec
 * total energy  :   -21.8600124 Eh     change       -0.6663576E-09 Eh
   gradient norm :     2.4880375 Eh/α   predicted     0.0000000E+00 (-100.00%)
   displ. norm   :     0.4147672 α      lambda       -0.1029580E+01
   maximum displ.:     0.3777968 α      in ANC's #35, #36, #26, ...

........................................................................
.............................. CYCLE    2 ..............................
........................................................................

 iter      E             dE          RMSdq      gap      omega  full diag
   1    -22.2703744 -0.222704E+02  0.264E+00    3.90       0.0  T
   2    -20.2191003  0.205127E+01  0.943E+00    0.07       1.0  T
   3    -22.3983408 -0.217924E+01  0.143E+00    3.42       1.0  T
   4    -22.4017926 -0.345183E-02  0.119E+00    3.59       1.0  T
   5    -22.3412268  0.605659E-01  0.188E+00    3.81       1.0  T
   6    -22.4012538 -0.600270E-01  0.119E+00    3.47       1.0  T
   7    -22.4022407 -0.986946E-03  0.112E+00    3.55       1.0  T
   8    -22.4035793 -0.133860E-02  0.107E+00    3.62       1.0  T
   9    -22.4030398  0.539516E-03  0.109E+00    3.60       1.0  T
  10    -22.4091659 -0.612605E-02  0.948E-01    3.70       1.0  T
  11    -22.4081458  0.102010E-02  0.971E-01    3.69       1.0  T
  12    -22.4223080 -0.141622E-01  0.591E-01    3.75       1.0  T
  13    -22.4069451  0.153629E-01  0.990E-01    3.68       1.0  T
  14    -22.2752326  0.131713E+00  0.266E+00    3.83       1.0  T
  15    -22.3898535 -0.114621E+00  0.127E+00    3.81       1.0  T
  16    -22.4023080 -0.124544E-01  0.111E+00    3.54       1.0  T
  17    -22.4231510 -0.208430E-01  0.502E-01    3.79       1.0  T
  18    -22.4100485  0.131024E-01  0.922E-01    3.68       1.0  T
  19    -22.4058200  0.422853E-02  0.983E-01    3.81       1.0  T
  20    -22.4194076 -0.135876E-01  0.681E-01    3.72       1.0  T
  21    -22.4286181 -0.921057E-02  0.256E-01    3.76       1.0  T
  22    -22.4255741  0.304402E-02  0.446E-01    3.75       1.0  T
  23    -22.4297645 -0.419033E-02  0.693E-02    3.77       1.0  T
  24    -22.4279412  0.182329E-02  0.265E-01    3.79       1.0  T
  25    -22.4258372  0.210399E-02  0.395E-01    3.80       1.0  T
  26    -22.4283402 -0.250302E-02  0.234E-01    3.79       1.0  T
  27    -22.4296384 -0.129826E-02  0.101E-01    3.77       1.0  T
  28    -22.4291166  0.521823E-03  0.184E-01    3.76       1.0  T
  29    -22.4295342 -0.417616E-03  0.117E-01    3.77       1.0  T
  30    -22.4297612 -0.226944E-03  0.288E-02    3.78       1.0  T
  31    -22.4294980  0.263156E-03  0.104E-01    3.78       1.0  T
  32    -22.4295100 -0.119714E-04  0.103E-01    3.78       1.0  T
  33    -22.4295523 -0.423359E-04  0.102E-01    3.77       1.0  T
  34    -22.4296537 -0.101337E-03  0.770E-02    3.77       1.0  T
  35    -22.4297785 -0.124865E-03  0.118E-02    3.78       2.3  T
  36    -22.4297654  0.131294E-04  0.267E-02    3.78       1.0  T
  37    -22.4297743 -0.891834E-05  0.181E-02    3.78       1.5  T
  38    -22.4297784 -0.410995E-05  0.124E-02    3.78       2.2  T
  39    -22.4297791 -0.674484E-06  0.112E-02    3.78       2.4  T
  40    -22.4297806 -0.144802E-05  0.833E-03    3.77       3.2  T
  41    -22.4297821 -0.158489E-05  0.842E-04    3.77      31.7  T
  42    -22.4297821  0.206080E-07  0.126E-03    3.77      21.2  T
  43    -22.4297821 -0.615934E-08  0.115E-03    3.77      23.2  T
  44    -22.4297822 -0.302025E-07  0.539E-05    3.77     495.7  T
  45    -22.4297822 -0.169464E-10  0.464E-05    3.77     575.9  T
     SCC iter.                  ...        0 min,  0.023 sec
     gradient                   ...        0 min,  0.001 sec
 * total energy  :   -21.9771926 Eh     change       -0.1171802E+00 Eh
   gradient norm :     2.2033184 Eh/α   predicted    -0.6033504E+00 ( 414.89%)
   displ. norm   :     0.1937228 α      lambda       -0.4079552E+00
   maximum displ.:     0.1797745 α      in ANC's #35, #36, #2, ...

........................................................................
.............................. CYCLE    3 ..............................
........................................................................

 iter      E             dE          RMSdq      gap      omega  full diag
   1    -22.4222758 -0.224223E+02  0.106E+00    3.52       0.0  T
   2    -22.2531810  0.169095E+00  0.305E+00    4.10       1.0  T
   3    -22.4299528 -0.176772E+00  0.828E-01    3.96       1.0  T
   4    -22.4274900  0.246277E-02  0.888E-01    3.79       1.0  T
   5    -22.4296148 -0.212484E-02  0.805E-01    3.99       1.0  T
   6    -22.4377303 -0.811545E-02  0.573E-01    3.89       1.0  T
   7    -22.4451266 -0.739629E-02  0.363E-02    3.94       1.0  T
   8    -22.4447609  0.365666E-03  0.139E-01    3.93       1.0  T
   9    -22.4387246  0.603627E-02  0.525E-01    3.97       1.0  T
  10    -22.4450748 -0.635015E-02  0.478E-02    3.95       1.0  T
  11    -22.4451200 -0.451791E-04  0.207E-02    3.95       1.3  T
  12    -22.4449807  0.139279E-03  0.782E-02    3.94       1.0  T
  13    -22.4449159  0.648061E-04  0.944E-02    3.94       1.0  T
  14    -22.4450425 -0.126620E-03  0.606E-02    3.94       1.0  T
  15    -22.4451263 -0.838293E-04  0.976E-03    3.94       2.7  T
  16    -22.4451283 -0.193842E-05  0.408E-03    3.95       6.5  T
  17    -22.4451285 -0.226612E-06  0.240E-03    3.94      11.1  T
  18    -22.4451286 -0.129012E-06  0.371E-05    3.94     720.2  T
  19    -22.4451286  0.969536E-11  0.416E-05    3.94     642.4  T
     SCC iter.                  ...        0 min,  0.009 sec
     gradient                   ...        0 min,  0.001 sec
 * total energy  :   -22.1861682 Eh     change       -0.2089756E+00 Eh
   gradient norm :     0.0714089 Eh/α   predicted    -0.2116326E+00 (   1.27%)
   displ. norm   :     0.0446135 α      lambda       -0.1036394E-02
   maximum displ.:     0.0347830 α      in ANC's #1, #19, #18, ...

........................................................................
.............................. CYCLE    4 ..............................
........................................................................

 iter      E             dE          RMSdq      gap      omega  full diag
   1    -22.4453114 -0.224453E+02  0.271E-01    3.93       0.0  T
   2    -22.2807000  0.164611E+00  0.271E+00    4.07       1.0  T
   3    -22.4462265 -0.165527E+00  0.175E-01    3.97       1.0  T
   4    -22.4461949  0.315615E-04  0.184E-01    3.95       1.0  T
   5    -22.4468919 -0.697013E-03  0.467E-02    3.96       1.0  T
   6    -22.4468475  0.444475E-04  0.619E-02    3.96       1.0  T
   7    -22.4469291 -0.815740E-04  0.182E-02    3.96       1.5  T
   8    -22.4469368 -0.777575E-05  0.317E-03    3.96       8.4  T
   9    -22.4469365  0.299426E-06  0.463E-03    3.96       5.8  T
  10    -22.4469367 -0.151955E-06  0.398E-03    3.96       6.7  T
  11    -22.4469370 -0.264425E-06  0.191E-03    3.96      14.0  T
  12    -22.4469369  0.499628E-07  0.245E-03    3.96      10.9  T
  13    -22.4469370 -0.935475E-07  0.136E-03    3.96      19.6  T
  14    -22.4469370 -0.356002E-07  0.590E-04    3.96      45.3  T
  15    -22.4469370 -0.786343E-08  0.107E-04    3.96     250.8  T
     SCC iter.                  ...        0 min,  0.007 sec
     gradient                   ...        0 min,  0.001 sec
 * total energy  :   -22.1868557 Eh     change       -0.6874766E-03 Eh
   gradient norm :     0.0159496 Eh/α   predicted    -0.5192284E-03 ( -24.47%)
   displ. norm   :     0.1082888 α      lambda       -0.7471673E-03
   maximum displ.:     0.0985733 α      in ANC's #1, #19, #18, ...

........................................................................
.............................. CYCLE    5 ..............................
........................................................................

 iter      E             dE          RMSdq      gap      omega  full diag
   1    -22.4477069 -0.224477E+02  0.223E-01    3.96       0.0  T
   2    -22.2943604  0.153347E+00  0.259E+00    4.08       1.0  T
   3    -22.4483413 -0.153981E+00  0.111E-01    3.97       1.0  T
   4    -22.4483502 -0.890857E-05  0.867E-02    3.98       1.0  T
   5    -22.4484907 -0.140505E-03  0.254E-02    3.98       1.1  T
   6    -22.4484984 -0.764205E-05  0.141E-02    3.98       1.9  T
   7    -22.4484952  0.314204E-05  0.182E-02    3.98       1.5  T
   8    -22.4484993 -0.407255E-05  0.106E-02    3.98       2.5  T
   9    -22.4485008 -0.145937E-05  0.599E-03    3.99       4.5  T
  10    -22.4484986  0.219268E-05  0.111E-02    3.98       2.4  T
  11    -22.4485015 -0.290923E-05  0.156E-03    3.98      17.1  T
  12    -22.4485015 -0.541094E-07  0.508E-04    3.98      52.7  T
  13    -22.4485015  0.212032E-07  0.105E-03    3.98      25.5  T
  14    -22.4485015 -0.246576E-07  0.316E-04    3.98      84.6  T
     SCC iter.                  ...        0 min,  0.006 sec
     gradient                   ...        0 min,  0.001 sec
 * total energy  :   -22.1871635 Eh     change       -0.3078473E-03 Eh
   gradient norm :     0.0388138 Eh/α   predicted    -0.3779656E-03 (  22.78%)
   displ. norm   :     0.1266026 α      lambda       -0.6434852E-03
   maximum displ.:     0.1188899 α      in ANC's #1, #19, #18, ...

........................................................................
.............................. CYCLE    6 ..............................
........................................................................

 iter      E             dE          RMSdq      gap      omega  full diag
   1    -22.4451465 -0.224451E+02  0.436E-01    3.93       0.0  T
   2    -22.2716743  0.173472E+00  0.285E+00    4.10       1.0  T
   3    -22.4400025 -0.168328E+00  0.636E-01    4.01       1.0  T
   4    -22.4429657 -0.296320E-02  0.527E-01    3.94       1.0  T
   5    -22.4488054 -0.583961E-02  0.142E-01    3.97       1.0  T
   6    -22.4488143 -0.894746E-05  0.137E-01    3.97       1.0  T
   7    -22.4491767 -0.362383E-03  0.412E-02    3.98       1.0  T
   8    -22.4492184 -0.416731E-04  0.709E-03    3.98       3.8  T
   9    -22.4492143  0.408668E-05  0.160E-02    3.98       1.7  T
  10    -22.4492180 -0.369533E-05  0.826E-03    3.98       3.2  T
  11    -22.4492189 -0.935116E-06  0.516E-03    3.98       5.2  T
  12    -22.4492195 -0.615562E-06  0.697E-04    3.98      38.3  T
  13    -22.4492194  0.757059E-07  0.190E-03    3.98      14.0  T
  14    -22.4492195 -0.858808E-07  0.875E-05    3.98     305.6  T
     SCC iter.                  ...        0 min,  0.006 sec
     gradient                   ...        0 min,  0.001 sec
 * total energy  :   -22.1873768 Eh     change       -0.2132964E-03 Eh
   gradient norm :     0.0301994 Eh/α   predicted    -0.3269018E-03 (  53.26%)
   displ. norm   :     0.0422784 α      lambda       -0.1839713E-03
   maximum displ.:     0.0412041 α      in ANC's #1, #19, #24, ...

........................................................................
.............................. CYCLE    7 ..............................
........................................................................

 iter      E             dE          RMSdq      gap      omega  full diag
   1    -22.4481165 -0.224481E+02  0.207E-01    3.99       0.0  T
   2    -22.4287451  0.193713E-01  0.959E-01    3.63       1.0  T
   3    -22.4470068 -0.182616E-01  0.296E-01    3.94       1.0  T
   4    -22.4473180 -0.311196E-03  0.276E-01    3.99       1.0  T
   5    -22.4490466 -0.172868E-02  0.112E-02    3.97       2.4  T
   6    -22.4488858  0.160869E-03  0.852E-02    3.97       1.0  T
   7    -22.4488851  0.668868E-06  0.848E-02    3.97       1.0  T
   8    -22.4490397 -0.154602E-03  0.190E-02    3.97       1.4  T
   9    -22.4490476 -0.789387E-05  0.528E-04    3.97      50.6  T
  10    -22.4490475  0.646010E-07  0.172E-03    3.97      15.6  T
  11    -22.4490476 -0.653793E-07  0.226E-04    3.97     118.1  T
  12    -22.4490473  0.298607E-06  0.363E-03    3.97       7.4  T
  13    -22.4490476 -0.271145E-06  0.110E-03    3.97      24.3  T
  14    -22.4490476 -0.529811E-08  0.998E-04    3.97      26.8  T
     SCC iter.                  ...        0 min,  0.006 sec
     gradient                   ...        0 min,  0.001 sec
 * total energy  :   -22.1874914 Eh     change       -0.1145182E-03 Eh
   gradient norm :     0.0089036 Eh/α   predicted    -0.9215170E-04 ( -19.53%)
   displ. norm   :     0.0149308 α      lambda       -0.4604191E-04
   maximum displ.:     0.0110680 α      in ANC's #1, #9, #15, ...

........................................................................
.............................. CYCLE    8 ..............................
........................................................................

 iter      E             dE          RMSdq      gap      omega  full diag
   1    -22.4488977 -0.224489E+02  0.270E-02    3.97       0.0  T
   2    -22.4464205  0.247722E-02  0.325E-01    3.93       1.0  T
   3    -22.4488900 -0.246952E-02  0.294E-02    3.97       1.0  T
   4    -22.4489037 -0.136814E-04  0.129E-02    3.97       2.1  T
   5    -22.4489071 -0.335013E-05  0.184E-03    3.96      14.5  T
   6    -22.4489065  0.536493E-06  0.513E-03    3.96       5.2  T
   7    -22.4489069 -0.381285E-06  0.298E-03    3.96       9.0  T
   8    -22.4489071 -0.192016E-06  0.200E-04    3.96     133.6  T
   9    -22.4489071 -0.398725E-09  0.139E-04    3.96     192.7  T
     SCC iter.                  ...        0 min,  0.004 sec
     gradient                   ...        0 min,  0.001 sec
 * total energy  :   -22.1875235 Eh     change       -0.3209597E-04 Eh
   gradient norm :     0.0048028 Eh/α   predicted    -0.2302664E-04 ( -28.26%)
   displ. norm   :     0.0155966 α      lambda       -0.3516717E-04
   maximum displ.:     0.0072048 α      in ANC's #9, #15, #4, ...

........................................................................
.............................. CYCLE    9 ..............................
........................................................................

 iter      E             dE          RMSdq      gap      omega  full diag
   1    -22.4487538 -0.224488E+02  0.225E-02    3.96       0.0  T
   2    -22.4482029  0.550938E-03  0.156E-01    3.97       1.0  T
   3    -22.4487554 -0.552463E-03  0.122E-02    3.96       2.2  T
   4    -22.4487515  0.386201E-05  0.130E-02    3.96       2.0  T
   5    -22.4487553 -0.382366E-05  0.188E-03    3.96      14.2  T
   6    -22.4487553  0.330797E-07  0.211E-03    3.96      12.7  T
   7    -22.4487554 -0.940970E-07  0.513E-04    3.96      52.1  T
   8    -22.4487554 -0.423133E-08  0.203E-04    3.96     131.6  T
     SCC iter.                  ...        0 min,  0.004 sec
     gradient                   ...        0 min,  0.001 sec
 * total energy  :   -22.1875498 Eh     change       -0.2630029E-04 Eh
   gradient norm :     0.0083803 Eh/α   predicted    -0.1758816E-04 ( -33.13%)
   displ. norm   :     0.0224088 α      lambda       -0.3849506E-04
   maximum displ.:     0.0104187 α      in ANC's #9, #15, #4, ...

........................................................................
.............................. CYCLE   10 ..............................
........................................................................

 iter      E             dE          RMSdq      gap      omega  full diag
   1    -22.4484638 -0.224485E+02  0.357E-02    3.95       0.0  T
   2    -22.4433262  0.513754E-02  0.475E-01    3.98       1.0  T
   3    -22.4484692 -0.514301E-02  0.241E-02    3.95       1.1  T
   4    -22.4484663  0.291995E-05  0.201E-02    3.96       1.3  T
   5    -22.4484747 -0.841865E-05  0.488E-03    3.95       5.5  T
   6    -22.4484752 -0.522511E-06  0.111E-03    3.95      24.1  T
   7    -22.4484752 -0.373721E-08  0.107E-03    3.95      25.0  T
   8    -22.4484753 -0.229320E-07  0.277E-04    3.95      96.6  T
   9    -22.4484753 -0.108767E-08  0.130E-04    3.95     205.0  T
     SCC iter.                  ...        0 min,  0.004 sec
     gradient                   ...        0 min,  0.001 sec
 * total energy  :   -22.1875764 Eh     change       -0.2666977E-04 Eh
   gradient norm :     0.0073078 Eh/α   predicted    -0.1925820E-04 ( -27.79%)
   displ. norm   :     0.0191935 α      lambda       -0.2432522E-04
   maximum displ.:     0.0081607 α      in ANC's #2, #9, #4, ...

........................................................................
.............................. CYCLE   11 ..............................
........................................................................

 iter      E             dE          RMSdq      gap      omega  full diag
   1    -22.4482288 -0.224482E+02  0.251E-02    3.96       0.0  T
   2    -22.4464179  0.181092E-02  0.282E-01    3.97       1.0  T
   3    -22.4482316 -0.181364E-02  0.155E-02    3.96       1.7  T
   4    -22.4482261  0.542106E-05  0.178E-02    3.96       1.5  T
   5    -22.4482332 -0.708912E-05  0.175E-03    3.96      15.3  T
   6    -22.4482333 -0.206923E-07  0.116E-03    3.96      23.0  T
   7    -22.4482333 -0.231760E-07  0.641E-04    3.96      41.7  T
   8    -22.4482333 -0.803225E-08  0.180E-04    3.96     148.4  T
     SCC iter.                  ...        0 min,  0.004 sec
     gradient                   ...        0 min,  0.001 sec
 * total energy  :   -22.1875941 Eh     change       -0.1769496E-04 Eh
   gradient norm :     0.0037721 Eh/α   predicted    -0.1216647E-04 ( -31.24%)
   displ. norm   :     0.0204606 α      lambda       -0.2259512E-04
   maximum displ.:     0.0105783 α      in ANC's #2, #4, #9, ...

........................................................................
.............................. CYCLE   12 ..............................
........................................................................

 iter      E             dE          RMSdq      gap      omega  full diag
   1    -22.4480420 -0.224480E+02  0.195E-02    3.96       0.0  T
   2    -22.4480390  0.295464E-05  0.153E-02    3.96       1.7  T
   3    -22.4472262  0.812754E-03  0.189E-01    3.97       1.0  T
   4    -22.4480372 -0.810947E-03  0.147E-02    3.96       1.8  T
   5    -22.4480421 -0.487854E-05  0.120E-03    3.96      22.3  T
   6    -22.4480421  0.101444E-08  0.993E-04    3.96      26.9  T
   7    -22.4480421 -0.205837E-07  0.220E-04    3.96     121.2  T
     SCC iter.                  ...        0 min,  0.003 sec
     gradient                   ...        0 min,  0.001 sec
 * total energy  :   -22.1876106 Eh     change       -0.1650578E-04 Eh
   gradient norm :     0.0034793 Eh/α   predicted    -0.1130198E-04 ( -31.53%)
   displ. norm   :     0.0230845 α      lambda       -0.2264276E-04
   maximum displ.:     0.0139009 α      in ANC's #2, #4, #5, ...

........................................................................
.............................. CYCLE   13 ..............................
........................................................................

 iter      E             dE          RMSdq      gap      omega  full diag
   1    -22.4479338 -0.224479E+02  0.277E-02    3.97       0.0  T
   2    -22.4455462  0.238766E-02  0.320E-01    3.94       1.0  T
   3    -22.4479157 -0.236957E-02  0.364E-02    3.97       1.0  T
   4    -22.4479390 -0.232847E-04  0.122E-02    3.97       2.2  T
   5    -22.4479419 -0.286298E-05  0.466E-03    3.97       5.7  T
   6    -22.4479420 -0.135433E-06  0.386E-03    3.97       6.9  T
   7    -22.4479423 -0.255459E-06  0.176E-03    3.97      15.1  T
   8    -22.4479423 -0.629908E-07  0.416E-04    3.97      64.2  T
   9    -22.4479423 -0.300906E-08  0.180E-04    3.97     148.9  T
     SCC iter.                  ...        0 min,  0.004 sec
     gradient                   ...        0 min,  0.001 sec
 * total energy  :   -22.1876276 Eh     change       -0.1695358E-04 Eh
   gradient norm :     0.0053796 Eh/α   predicted    -0.1132634E-04 ( -33.19%)
   displ. norm   :     0.0310036 α      lambda       -0.2755992E-04
   maximum displ.:     0.0205784 α      in ANC's #2, #4, #5, ...

........................................................................
.............................. CYCLE   14 ..............................
........................................................................

 iter      E             dE          RMSdq      gap      omega  full diag
   1    -22.4478882 -0.224479E+02  0.490E-02    3.98       0.0  T
   2    -22.4399387  0.794945E-02  0.581E-01    3.91       1.0  T
   3    -22.4478838 -0.794511E-02  0.464E-02    3.98       1.0  T
   4    -22.4479264 -0.426206E-04  0.778E-03    3.97       3.4  T
   5    -22.4479249  0.158785E-05  0.111E-02    3.97       2.4  T
   6    -22.4479257 -0.883565E-06  0.895E-03    3.97       3.0  T
   7    -22.4479275 -0.172073E-05  0.553E-04    3.97      48.3  T
   8    -22.4479274  0.124686E-07  0.959E-04    3.97      27.9  T
   9    -22.4479275 -0.188547E-07  0.135E-04    3.97     197.3  T
     SCC iter.                  ...        0 min,  0.004 sec
     gradient                   ...        0 min,  0.001 sec
 * total energy  :   -22.1876481 Eh     change       -0.2054224E-04 Eh
   gradient norm :     0.0056107 Eh/α   predicted    -0.1379328E-04 ( -32.85%)
   displ. norm   :     0.0401382 α      lambda       -0.3221400E-04
   maximum displ.:     0.0283176 α      in ANC's #2, #4, #5, ...

........................................................................
.............................. CYCLE   15 ..............................
........................................................................

 iter      E             dE          RMSdq      gap      omega  full diag
   1    -22.4479084 -0.224479E+02  0.689E-02    3.98       0.0  T
   2    -22.4355447  0.123637E-01  0.724E-01    3.88       1.0  T
   3    -22.4479284 -0.123837E-01  0.560E-02    3.98       1.0  T
   4    -22.4479912 -0.628868E-04  0.739E-03    3.98       3.6  T
   5    -22.4479871  0.418898E-05  0.148E-02    3.97       1.8  T
   6    -22.4479894 -0.230901E-05  0.101E-02    3.98       2.6  T
   7    -22.4479915 -0.215782E-05  0.142E-03    3.98      18.8  T
   8    -22.4479915 -0.262516E-07  0.810E-04    3.98      33.0  T
   9    -22.4479915 -0.168909E-08  0.708E-04    3.98      37.7  T
     SCC iter.                  ...        0 min,  0.004 sec
     gradient                   ...        0 min,  0.001 sec
 * total energy  :   -22.1876719 Eh     change       -0.2376890E-04 Eh
   gradient norm :     0.0041114 Eh/α   predicted    -0.1613337E-04 ( -32.12%)
   displ. norm   :     0.0460387 α      lambda       -0.3417864E-04
   maximum displ.:     0.0338164 α      in ANC's #2, #4, #5, ...

........................................................................
.............................. CYCLE   16 ..............................
........................................................................

 iter      E             dE          RMSdq      gap      omega  full diag
   1    -22.4480155 -0.224480E+02  0.756E-02    3.98       0.0  T
   2    -22.4343407  0.136748E-01  0.761E-01    3.86       1.0  T
   3    -22.4480267 -0.136860E-01  0.659E-02    3.97       1.0  T
   4    -22.4481142 -0.875449E-04  0.937E-03    3.97       2.9  T
   5    -22.4481084  0.576190E-05  0.177E-02    3.97       1.5  T
   6    -22.4481119 -0.344825E-05  0.118E-02    3.97       2.3  T
   7    -22.4481147 -0.280744E-05  0.279E-03    3.97       9.6  T
   8    -22.4481148 -0.154572E-06  0.661E-04    3.97      40.4  T
   9    -22.4481148  0.619271E-08  0.700E-04    3.97      38.2  T
     SCC iter.                  ...        0 min,  0.004 sec
     gradient                   ...        0 min,  0.001 sec
 * total energy  :   -22.1876967 Eh     change       -0.2476639E-04 Eh
   gradient norm :     0.0040498 Eh/α   predicted    -0.1712318E-04 ( -30.86%)
   displ. norm   :     0.0439089 α      lambda       -0.3168494E-04
   maximum displ.:     0.0330935 α      in ANC's #2, #4, #5, ...

........................................................................
.............................. CYCLE   17 ..............................
........................................................................

 iter      E             dE          RMSdq      gap      omega  full diag
   1    -22.4482029 -0.224482E+02  0.635E-02    3.97       0.0  T
   2    -22.4365488  0.116542E-01  0.702E-01    3.87       1.0  T
   3    -22.4481606 -0.116118E-01  0.724E-02    3.97       1.0  T
   4    -22.4482640 -0.103361E-03  0.168E-02    3.96       1.6  T
   5    -22.4482647 -0.743816E-06  0.156E-02    3.96       1.7  T
   6    -22.4482635  0.124007E-05  0.168E-02    3.96       1.6  T
   7    -22.4482679 -0.438655E-05  0.894E-03    3.96       3.0  T
   8    -22.4482696 -0.166834E-05  0.158E-03    3.96      16.9  T
   9    -22.4482696 -0.392872E-07  0.552E-04    3.96      48.4  T
  10    -22.4482695  0.467107E-07  0.153E-03    3.96      17.5  T
  11    -22.4482696 -0.390226E-07  0.632E-04    3.96      42.3  T
     SCC iter.                  ...        0 min,  0.005 sec
     gradient                   ...        0 min,  0.001 sec
 * total energy  :   -22.1877197 Eh     change       -0.2305335E-04 Eh
   gradient norm :     0.0056978 Eh/α   predicted    -0.1587168E-04 ( -31.15%)
   displ. norm   :     0.0426557 α      lambda       -0.3103996E-04
   maximum displ.:     0.0323591 α      in ANC's #2, #4, #5, ...

........................................................................
.............................. CYCLE   18 ..............................
........................................................................

 iter      E             dE          RMSdq      gap      omega  full diag
   1    -22.4483898 -0.224484E+02  0.488E-02    3.96       0.0  T
   2    -22.4403782  0.801160E-02  0.583E-01    3.89       1.0  T
   3    -22.4483285 -0.795038E-02  0.681E-02    3.95       1.0  T
   4    -22.4484028 -0.742148E-04  0.310E-02    3.95       1.0  T
   5    -22.4484232 -0.204946E-04  0.802E-03    3.95       3.3  T
   6    -22.4484186  0.465209E-05  0.162E-02    3.95       1.6  T
   7    -22.4484240 -0.543070E-05  0.375E-03    3.95       7.1  T
   8    -22.4484241 -0.100190E-06  0.308E-03    3.95       8.7  T
   9    -22.4484243 -0.172636E-06  0.997E-04    3.95      26.8  T
  10    -22.4484243 -0.702475E-09  0.853E-04    3.95      31.3  T
     SCC iter.                  ...        0 min,  0.005 sec
     gradient                   ...        0 min,  0.001 sec
 * total energy  :   -22.1877428 Eh     change       -0.2304048E-04 Eh
   gradient norm :     0.0060150 Eh/α   predicted    -0.1554865E-04 ( -32.52%)
   displ. norm   :     0.0518035 α      lambda       -0.3644352E-04
   maximum displ.:     0.0388056 α      in ANC's #2, #4, #7, ...

........................................................................
.............................. CYCLE   19 ..............................
........................................................................

 iter      E             dE          RMSdq      gap      omega  full diag
   1    -22.4484966 -0.224485E+02  0.581E-02    3.95       0.0  T
   2    -22.4381893  0.103073E-01  0.660E-01    3.87       1.0  T
   3    -22.4484437 -0.102544E-01  0.713E-02    3.95       1.0  T
   4    -22.4485174 -0.737319E-04  0.357E-02    3.95       1.0  T
   5    -22.4485394 -0.219504E-04  0.187E-02    3.94       1.4  T
   6    -22.4485370  0.241047E-05  0.210E-02    3.94       1.3  T
   7    -22.4485465 -0.953633E-05  0.189E-03    3.94      14.1  T
   8    -22.4485460  0.516632E-06  0.521E-03    3.94       5.1  T
   9    -22.4485465 -0.539040E-06  0.106E-03    3.94      25.2  T
  10    -22.4485465  0.984741E-08  0.103E-03    3.94      26.0  T
  11    -22.4485465 -0.200006E-07  0.163E-04    3.94     163.8  T
  12    -22.4485465  0.807178E-08  0.631E-04    3.94      42.3  T
     SCC iter.                  ...        0 min,  0.005 sec
     gradient                   ...        0 min,  0.001 sec
 * total energy  :   -22.1877707 Eh     change       -0.2794256E-04 Eh
   gradient norm :     0.0052608 Eh/α   predicted    -0.1827226E-04 ( -34.61%)
   displ. norm   :     0.0834071 α      lambda       -0.5404585E-04
   maximum displ.:     0.0615597 α      in ANC's #2, #4, #7, ...

........................................................................
.............................. CYCLE   20 ..............................
........................................................................

 iter      E             dE          RMSdq      gap      omega  full diag
   1    -22.4483895 -0.224484E+02  0.109E-01    3.95       0.0  T
   2    -22.4301699  0.182196E-01  0.883E-01    3.78       1.0  T
   3    -22.4485447 -0.183748E-01  0.550E-02    3.94       1.0  T
   4    -22.4485666 -0.218987E-04  0.329E-02    3.94       1.0  T
   5    -22.4485453  0.213063E-04  0.450E-02    3.93       1.0  T
   6    -22.4485809 -0.356266E-04  0.205E-02    3.94       1.3  T
   7    -22.4485847 -0.376553E-05  0.156E-02    3.94       1.7  T
   8    -22.4485895 -0.486652E-05  0.491E-03    3.94       5.4  T
   9    -22.4485859  0.361582E-05  0.137E-02    3.94       2.0  T
  10    -22.4485891 -0.316058E-05  0.628E-03    3.94       4.3  T
  11    -22.4485897 -0.662977E-06  0.292E-03    3.94       9.2  T
  12    -22.4485899 -0.173046E-06  0.802E-04    3.94      33.3  T
  13    -22.4485899 -0.135737E-07  0.367E-05    3.94     728.4  T
     SCC iter.                  ...        0 min,  0.006 sec
     gradient                   ...        0 min,  0.001 sec
 * total energy  :   -22.1878120 Eh     change       -0.4130850E-04 Eh
   gradient norm :     0.0052908 Eh/α   predicted    -0.2721275E-04 ( -34.12%)
   displ. norm   :     0.1256494 α      lambda       -0.7668728E-04
   maximum displ.:     0.0911448 α      in ANC's #2, #4, #7, ...
 * RMSD in coord.:     0.1744819 α      energy gain  -0.3277996E+00 Eh

generating ANC from model Hessian ...
Using Lindh-Hessian (1995)
 Shifting diagonal of input Hessian by    9.7971894133459369E-003
 Lowest  eigenvalues of input Hessian
    0.000000    0.000000    0.000000    0.000000    0.000000    0.000000
    0.010000    0.010633    0.011064    0.012084    0.032159    0.035866
    0.050006    0.067550    0.070479    0.082560    0.091980    0.105108
 Highest eigenvalues
    1.456144    1.610169    1.794089    1.960221    5.120147   11.702355


........................................................................
.............................. CYCLE   21 ..............................
........................................................................

 iter      E             dE          RMSdq      gap      omega  full diag
   1    -22.4475042 -0.224475E+02  0.224E-01    3.95       0.0  T
   2    -22.4260978  0.214064E-01  0.101E+00    3.57       1.0  T
   3    -22.4463959 -0.202981E-01  0.301E-01    3.91       1.0  T
   4    -22.4317426  0.146533E-01  0.860E-01    3.98       1.0  T
   5    -22.4481988 -0.164562E-01  0.107E-01    3.94       1.0  T
   6    -22.4474713  0.727476E-03  0.210E-01    3.92       1.0  T
   7    -22.4483712 -0.899905E-03  0.676E-02    3.93       1.0  T
   8    -22.4482133  0.157912E-03  0.106E-01    3.93       1.0  T
   9    -22.4482129  0.427676E-06  0.108E-01    3.94       1.0  T
  10    -22.4483849 -0.172041E-03  0.621E-02    3.94       1.0  T
  11    -22.4484609 -0.759567E-04  0.212E-02    3.94       1.3  T
  12    -22.4484639 -0.304870E-05  0.175E-02    3.94       1.5  T
  13    -22.4484662 -0.227845E-05  0.134E-02    3.93       2.0  T
  14    -22.4484702 -0.402205E-05  0.249E-03    3.94      10.8  T
  15    -22.4484704 -0.144768E-06  0.221E-04    3.94     120.9  T
  16    -22.4484703  0.104156E-07  0.712E-04    3.94      37.5  T
     SCC iter.                  ...        0 min,  0.007 sec
     gradient                   ...        0 min,  0.001 sec
 * total energy  :   -22.1878702 Eh     change       -0.5820002E-04 Eh
   gradient norm :     0.0064479 Eh/α   predicted     0.0000000E+00 (-100.00%)
   displ. norm   :     0.0907950 α      lambda       -0.2284345E-03
   maximum displ.:     0.0674712 α      in ANC's #4, #5, #6, ...

........................................................................
.............................. CYCLE   22 ..............................
........................................................................

 iter      E             dE          RMSdq      gap      omega  full diag
   1    -22.4444546 -0.224445E+02  0.418E-01    3.97       0.0  T
   2    -22.4230464  0.214082E-01  0.113E+00    3.22       1.0  T
   3    -22.4296058 -0.655944E-02  0.897E-01    3.81       1.0  T
   4    -22.4324876 -0.288180E-02  0.826E-01    3.99       1.0  T
   5    -22.4478074 -0.153198E-01  0.153E-01    3.94       1.0  T
   6    -22.4424327  0.537475E-02  0.509E-01    3.90       1.0  T
   7    -22.4435088 -0.107610E-02  0.460E-01    3.91       1.0  T
   8    -22.4481931 -0.468429E-02  0.526E-02    3.95       1.0  T
   9    -22.4480760  0.117037E-03  0.894E-02    3.96       1.0  T
  10    -22.4482557 -0.179627E-03  0.128E-02    3.95       2.1  T
  11    -22.4482593 -0.362802E-05  0.349E-03    3.95       7.6  T
  12    -22.4481632  0.960919E-04  0.659E-02    3.95       1.0  T
  13    -22.4482539 -0.907447E-04  0.153E-02    3.95       1.7  T
  14    -22.4482592 -0.530343E-05  0.141E-03    3.95      18.9  T
  15    -22.4482593 -0.268470E-07  0.106E-03    3.95      25.3  T
  16    -22.4482593 -0.164374E-07  0.619E-04    3.95      43.2  T
  17    -22.4482593 -0.640857E-08  0.312E-04    3.95      85.6  T
     SCC iter.                  ...        0 min,  0.008 sec
     gradient                   ...        0 min,  0.001 sec
 * total energy  :   -22.1880497 Eh     change       -0.1794772E-03 Eh
   gradient norm :     0.0038663 Eh/α   predicted    -0.1151588E-03 ( -35.84%)
   displ. norm   :     0.2421716 α      lambda       -0.3500376E-03
   maximum displ.:     0.2007391 α      in ANC's #4, #5, #2, ...

........................................................................
.............................. CYCLE   23 ..............................
........................................................................

 iter      E             dE          RMSdq      gap      omega  full diag
   1    -22.4335910 -0.224336E+02  0.828E-01    4.02       0.0  T
   2    -22.4175751  0.160160E-01  0.135E+00    2.54       1.0  T
   3    -22.4246352 -0.706010E-02  0.106E+00    3.56       1.0  T
   4    -22.4450369 -0.204017E-01  0.384E-01    3.95       1.0  T
   5    -22.4390329  0.600405E-02  0.637E-01    4.02       1.0  T
   6    -22.4359518  0.308111E-02  0.726E-01    3.90       1.0  T
   7    -22.4428067 -0.685493E-02  0.483E-01    3.94       1.0  T
   8    -22.4337122  0.909452E-02  0.786E-01    3.89       1.0  T
   9    -22.4387704 -0.505826E-02  0.631E-01    3.92       1.0  T
  10    -22.4369036  0.186682E-02  0.739E-01    4.03       1.0  T
  11    -22.4478614 -0.109578E-01  0.112E-01    3.97       1.0  T
  12    -22.4480783 -0.216827E-03  0.665E-02    3.99       1.0  T
  13    -22.4479886  0.897065E-04  0.814E-02    3.97       1.0  T
  14    -22.4481509 -0.162345E-03  0.265E-02    3.98       1.0  T
  15    -22.4481483  0.255629E-05  0.186E-02    3.98       1.4  T
  16    -22.4481143  0.339965E-04  0.469E-02    3.98       1.0  T
  17    -22.4481508 -0.364632E-04  0.181E-02    3.98       1.5  T
  18    -22.4481544 -0.358846E-05  0.115E-02    3.98       2.3  T
  19    -22.4481569 -0.252115E-05  0.271E-03    3.98       9.9  T
  20    -22.4481571 -0.159938E-06  0.504E-04    3.98      53.0  T
  21    -22.4481571 -0.489889E-08  0.224E-04    3.98     119.2  T
     SCC iter.                  ...        0 min,  0.010 sec
     gradient                   ...        0 min,  0.001 sec
 * total energy  :   -22.1883499 Eh     change       -0.3002332E-03 Eh
   gradient norm :     0.0097521 Eh/α   predicted    -0.1852778E-03 ( -38.29%)
   displ. norm   :     0.5824662 α      lambda       -0.7818333E-03
   maximum displ.:     0.4599285 α      in ANC's #4, #2, #5, ...

........................................................................
.............................. CYCLE   24 ..............................
........................................................................

 iter      E             dE          RMSdq      gap      omega  full diag
   1    -22.4108938 -0.224109E+02  0.135E+00    4.01       0.0  T
   2    -22.4074726  0.342118E-02  0.163E+00    1.82       1.0  T
   3    -22.4213420 -0.138694E-01  0.118E+00    3.26       1.0  T
   4    -22.4338157 -0.124737E-01  0.799E-01    3.83       1.0  T
   5    -22.4337831  0.325949E-04  0.800E-01    3.83       1.0  T
   6    -22.4330289  0.754258E-03  0.813E-01    3.83       1.0  T
   7    -22.4436259 -0.105970E-01  0.397E-01    3.95       1.0  T
   8    -22.3764270  0.671989E-01  0.176E+00    4.07       1.0  T
   9    -22.4347796 -0.583527E-01  0.738E-01    4.01       1.0  T
  10    -22.4373774 -0.259773E-02  0.665E-01    3.87       1.0  T
  11    -22.4372533  0.124039E-03  0.671E-01    3.86       1.0  T
  12    -22.4408024 -0.354910E-02  0.537E-01    3.89       1.0  T
  13    -22.4447549 -0.395242E-02  0.332E-01    3.93       1.0  T
  14    -22.4455283 -0.773410E-03  0.271E-01    3.94       1.0  T
  15    -22.4471498 -0.162157E-02  0.233E-02    3.98       1.1  T
  16    -22.4469955  0.154353E-03  0.863E-02    3.97       1.0  T
  17    -22.4470987 -0.103208E-03  0.518E-02    3.97       1.0  T
  18    -22.4471600 -0.612757E-04  0.298E-03    3.98       9.0  T
  19    -22.4471186  0.413901E-04  0.431E-02    3.97       1.0  T
  20    -22.4471593 -0.407511E-04  0.573E-03    3.98       4.7  T
  21    -22.4471600 -0.704338E-06  0.131E-03    3.98      20.5  T
  22    -22.4471600 -0.167921E-07  0.977E-04    3.98      27.4  T
  23    -22.4471601 -0.214025E-07  0.348E-05    3.98     767.6  T
     SCC iter.                  ...        0 min,  0.011 sec
     gradient                   ...        0 min,  0.001 sec
 * total energy  :   -22.1887611 Eh     change       -0.4112024E-03 Eh
   gradient norm :     0.0931202 Eh/α   predicted    -0.5235596E-03 (  27.32%)
   displ. norm   :     0.0614865 α      lambda       -0.1078124E-02
   maximum displ.:     0.0376198 α      in ANC's #3, #4, #2, ...

........................................................................
.............................. CYCLE   25 ..............................
........................................................................

 iter      E             dE          RMSdq      gap      omega  full diag
   1    -22.4487189 -0.224487E+02  0.682E-02    3.98       0.0  T
   2    -22.4352121  0.135067E-01  0.766E-01    4.04       1.0  T
   3    -22.4487591 -0.135469E-01  0.400E-02    3.99       1.0  T
   4    -22.4487663 -0.721635E-05  0.196E-02    3.99       1.4  T
   5    -22.4487692 -0.291007E-05  0.966E-03    3.99       2.8  T
   6    -22.4487692  0.625218E-08  0.807E-03    3.99       3.3  T
   7    -22.4487695 -0.349999E-06  0.509E-03    3.99       5.2  T
   8    -22.4487699 -0.312361E-06  0.112E-03    3.99      23.9  T
   9    -22.4487699 -0.333164E-08  0.781E-04    3.99      34.2  T
  10    -22.4487699 -0.100154E-07  0.290E-04    3.99      92.2  T
     SCC iter.                  ...        0 min,  0.005 sec
     gradient                   ...        0 min,  0.001 sec
 * total energy  :   -22.1895426 Eh     change       -0.7814651E-03 Eh
   gradient norm :     0.0401024 Eh/α   predicted    -0.5410979E-03 ( -30.76%)
   displ. norm   :     0.5971148 α      lambda       -0.2719026E-02
   maximum displ.:     0.3936534 α      in ANC's #2, #3, #4, ...

........................................................................
.............................. CYCLE   26 ..............................
........................................................................

 iter      E             dE          RMSdq      gap      omega  full diag
   1    -22.4481909 -0.224482E+02  0.548E-01    3.92       0.0  T
   2    -22.4334145  0.147764E-01  0.980E-01    3.42       1.0  T
   3    -22.4516625 -0.182480E-01  0.172E-01    3.91       1.0  T
   4    -22.4498828  0.177967E-02  0.293E-01    3.96       1.0  T
   5    -22.4509183 -0.103543E-02  0.188E-01    3.86       1.0  T
   6    -22.4516007 -0.682394E-03  0.589E-02    3.90       1.0  T
   7    -22.4516710 -0.703368E-04  0.104E-02    3.92       2.6  T
   8    -22.4516562  0.147499E-04  0.275E-02    3.91       1.0  T
   9    -22.4516710 -0.147381E-04  0.859E-03    3.91       3.1  T
  10    -22.4516723 -0.132114E-05  0.328E-03    3.91       8.1  T
  11    -22.4516725 -0.225575E-06  0.487E-04    3.91      54.9  T
  12    -22.4516725 -0.383695E-08  0.868E-05    3.91     307.9  T
     SCC iter.                  ...        0 min,  0.005 sec
     gradient                   ...        0 min,  0.001 sec
 * total energy  :   -22.1921071 Eh     change       -0.2564470E-02 Eh
   gradient norm :     0.0353262 Eh/α   predicted    -0.1844214E-02 ( -28.09%)
   displ. norm   :     0.7795508 α      lambda       -0.4887719E-02
   maximum displ.:     0.5116976 α      in ANC's #3, #2, #4, ...

........................................................................
.............................. CYCLE   27 ..............................
........................................................................

 iter      E             dE          RMSdq      gap      omega  full diag
   1    -22.4559784 -0.224560E+02  0.508E-01    3.60       0.0  T
   2    -22.4561438 -0.165379E-03  0.300E-01    3.62       1.0  T
   3    -22.4553150  0.828767E-03  0.306E-01    3.73       1.0  T
   4    -22.4561225 -0.807502E-03  0.144E-01    3.58       1.0  T
   5    -22.4564765 -0.353970E-03  0.389E-02    3.65       1.0  T
   6    -22.4564869 -0.104555E-04  0.213E-02    3.66       1.3  T
   7    -22.4564903 -0.342974E-05  0.674E-03    3.66       4.0  T
   8    -22.4564910 -0.651456E-06  0.207E-03    3.66      12.9  T
   9    -22.4564910 -0.762553E-08  0.951E-04    3.66      28.1  T
  10    -22.4564910 -0.937528E-08  0.185E-04    3.66     144.7  T
     SCC iter.                  ...        0 min,  0.005 sec
     gradient                   ...        0 min,  0.001 sec
 * total energy  :   -22.1940146 Eh     change       -0.1907544E-02 Eh
   gradient norm :     0.2146176 Eh/α   predicted    -0.3929003E-02 ( 105.97%)
   displ. norm   :     0.3706793 α      lambda       -0.8907941E-02
   maximum displ.:     0.1833952 α      in ANC's #5, #6, #3, ...

........................................................................
.............................. CYCLE   28 ..............................
........................................................................

 iter      E             dE          RMSdq      gap      omega  full diag
   1    -22.4640132 -0.224640E+02  0.392E-01    3.55       0.0  T
   2    -22.4640246 -0.113511E-04  0.238E-01    3.55       1.0  T
   3    -22.4636601  0.364445E-03  0.174E-01    3.59       1.0  T
   4    -22.4640500 -0.389879E-03  0.390E-02    3.54       1.0  T
   5    -22.4640759 -0.259357E-04  0.108E-02    3.56       2.5  T
   6    -22.4640765 -0.539247E-06  0.483E-03    3.56       5.5  T
   7    -22.4640765 -0.852780E-07  0.248E-03    3.56      10.8  T
   8    -22.4640766 -0.382402E-07  0.646E-04    3.56      41.3  T
   9    -22.4640766 -0.117868E-08  0.208E-04    3.56     128.6  T
     SCC iter.                  ...        0 min,  0.004 sec
     gradient                   ...        0 min,  0.001 sec
 * total energy  :   -22.1940392 Eh     change       -0.2461980E-04 Eh
   gradient norm :     0.1929864 Eh/α   predicted    -0.5065966E-02 (*******%)
   displ. norm   :     0.3701666 α      lambda       -0.1131671E-01
   maximum displ.:     0.3039554 α      in ANC's #4, #3, #5, ...

........................................................................
.............................. CYCLE   29 ..............................
........................................................................

 iter      E             dE          RMSdq      gap      omega  full diag
   1    -22.4623459 -0.224623E+02  0.314E-01    3.42       0.0  T
   2    -22.4624018 -0.558590E-04  0.178E-01    3.43       1.0  T
   3    -22.4623698  0.319523E-04  0.746E-02    3.43       1.0  T
   4    -22.4624125 -0.426517E-04  0.220E-02    3.43       1.2  T
   5    -22.4624166 -0.414538E-05  0.788E-03    3.43       3.4  T
   6    -22.4624169 -0.302463E-06  0.338E-03    3.43       7.9  T
   7    -22.4624170 -0.731343E-07  0.150E-03    3.43      17.8  T
   8    -22.4624170  0.187680E-08  0.120E-03    3.43      22.4  T
   9    -22.4624170 -0.160211E-07  0.272E-04    3.43      98.3  T
  10    -22.4624170 -0.175049E-09  0.576E-05    3.43     463.7  T
     SCC iter.                  ...        0 min,  0.005 sec
     gradient                   ...        0 min,  0.001 sec
 * total energy  :   -22.1974888 Eh     change       -0.3449540E-02 Eh
   gradient norm :     0.1395745 Eh/α   predicted    -0.6433682E-02 (  86.51%)
   displ. norm   :     0.3785842 α      lambda       -0.5605563E-02
   maximum displ.:     0.3110594 α      in ANC's #3, #2, #7, ...

........................................................................
.............................. CYCLE   30 ..............................
........................................................................

 iter      E             dE          RMSdq      gap      omega  full diag
   1    -22.4586692 -0.224587E+02  0.311E-01    3.20       0.0  T
   2    -22.4586938 -0.245471E-04  0.193E-01    3.24       1.0  T
   3    -22.4586349  0.588604E-04  0.708E-02    3.20       1.0  T
   4    -22.4587079 -0.729154E-04  0.152E-02    3.23       1.8  T
   5    -22.4587078  0.991957E-07  0.107E-02    3.23       2.5  T
   6    -22.4587086 -0.805047E-06  0.394E-03    3.23       6.8  T
   7    -22.4587087 -0.934472E-07  0.156E-03    3.23      17.1  T
   8    -22.4587087 -0.542574E-08  0.446E-04    3.23      59.9  T
   9    -22.4587087 -0.160575E-08  0.203E-04    3.23     131.5  T
     SCC iter.                  ...        0 min,  0.004 sec
     gradient                   ...        0 min,  0.001 sec
 * total energy  :   -22.2000437 Eh     change       -0.2554927E-02 Eh
   gradient norm :     0.1278965 Eh/α   predicted    -0.3204495E-02 (  25.42%)
   displ. norm   :     0.1499106 α      lambda       -0.2195740E-02
   maximum displ.:     0.1208407 α      in ANC's #4, #1, #3, ...

........................................................................
.............................. CYCLE   31 ..............................
........................................................................

 iter      E             dE          RMSdq      gap      omega  full diag
   1    -22.4547670 -0.224548E+02  0.117E-01    3.23       0.0  T
   2    -22.4547710 -0.400091E-05  0.683E-02    3.22       1.0  T
   3    -22.4547677  0.329262E-05  0.213E-02    3.21       1.3  T
   4    -22.4547720 -0.431166E-05  0.539E-03    3.22       5.0  T
   5    -22.4547723 -0.203209E-06  0.227E-03    3.22      11.8  T
   6    -22.4547723 -0.896782E-08  0.116E-03    3.22      23.0  T
   7    -22.4547723 -0.645706E-08  0.524E-04    3.22      51.0  T
   8    -22.4547723 -0.155996E-08  0.270E-04    3.22      98.8  T
     SCC iter.                  ...        0 min,  0.004 sec
     gradient                   ...        0 min,  0.001 sec
 * total energy  :   -22.2010001 Eh     change       -0.9563801E-03 Eh
   gradient norm :     0.0393844 Eh/α   predicted    -0.1122544E-02 (  17.37%)
   displ. norm   :     0.3859243 α      lambda       -0.3496387E-02
   maximum displ.:     0.3170170 α      in ANC's #3, #1, #2, ...

........................................................................
.............................. CYCLE   32 ..............................
........................................................................

 iter      E             dE          RMSdq      gap      omega  full diag
   1    -22.4592023 -0.224592E+02  0.432E-01    2.96       0.0  T
   2    -22.4592756 -0.732713E-04  0.248E-01    2.97       1.0  T
   3    -22.4591246  0.150968E-03  0.132E-01    2.98       1.0  T
   4    -22.4593156 -0.191004E-03  0.309E-02    2.98       1.0  T
   5    -22.4593194 -0.378306E-05  0.141E-02    2.99       1.9  T
   6    -22.4593201 -0.643029E-06  0.529E-03    2.99       5.0  T
   7    -22.4593201 -0.765541E-07  0.247E-03    2.99      10.8  T
   8    -22.4593202 -0.230540E-07  0.848E-04    2.99      31.5  T
   9    -22.4593202 -0.183609E-08  0.414E-04    2.99      64.6  T
     SCC iter.                  ...        0 min,  0.004 sec
     gradient                   ...        0 min,  0.001 sec
 * total energy  :   -22.2023778 Eh     change       -0.1377771E-02 Eh
   gradient norm :     0.0634005 Eh/α   predicted    -0.2008581E-02 (  45.78%)
   displ. norm   :     0.5406817 α      lambda       -0.4285199E-02
   maximum displ.:     0.4326035 α      in ANC's #3, #2, #10, ...

........................................................................
.............................. CYCLE   33 ..............................
........................................................................

 iter      E             dE          RMSdq      gap      omega  full diag
   1    -22.4652077 -0.224652E+02  0.556E-01    2.56       0.0  T
   2    -22.4656286 -0.420901E-03  0.364E-01    2.66       1.0  T
   3    -22.4656830 -0.543925E-04  0.583E-02    2.67       1.0  T
   4    -22.4656893 -0.635819E-05  0.332E-02    2.68       1.0  T
   5    -22.4656889  0.412063E-06  0.244E-02    2.68       1.1  T
   6    -22.4656935 -0.455255E-05  0.557E-03    2.68       4.8  T
   7    -22.4656936 -0.825434E-07  0.288E-03    2.68       9.3  T
   8    -22.4656936 -0.125691E-07  0.607E-04    2.68      44.1  T
   9    -22.4656936 -0.186538E-08  0.272E-04    2.68      98.4  T
     SCC iter.                  ...        0 min,  0.004 sec
     gradient                   ...        0 min,  0.001 sec
 * total energy  :   -22.2037188 Eh     change       -0.1340945E-02 Eh
   gradient norm :     0.1052859 Eh/α   predicted    -0.2768964E-02 ( 106.49%)
   displ. norm   :     0.2954736 α      lambda       -0.5871017E-02
   maximum displ.:     0.1754722 α      in ANC's #3, #4, #6, ...

........................................................................
.............................. CYCLE   34 ..............................
........................................................................

 iter      E             dE          RMSdq      gap      omega  full diag
   1    -22.4607769 -0.224608E+02  0.310E-01    2.92       0.0  T
   2    -22.4608464 -0.695522E-04  0.194E-01    2.87       1.0  T
   3    -22.4608076  0.388480E-04  0.690E-02    2.89       1.0  T
   4    -22.4608626 -0.550927E-04  0.263E-02    2.87       1.0  T
   5    -22.4608672 -0.454495E-05  0.119E-02    2.86       2.2  T
   6    -22.4608675 -0.351670E-06  0.545E-03    2.87       4.9  T
   7    -22.4608677 -0.199155E-06  0.198E-03    2.87      13.5  T
   8    -22.4608678 -0.759780E-08  0.675E-04    2.87      39.6  T
   9    -22.4608678 -0.911456E-09  0.244E-04    2.87     109.7  T
     SCC iter.                  ...        0 min,  0.004 sec
     gradient                   ...        0 min,  0.001 sec
 * total energy  :   -22.2060513 Eh     change       -0.2332527E-02 Eh
   gradient norm :     0.0612168 Eh/α   predicted    -0.3191795E-02 (  36.84%)
   displ. norm   :     0.1946105 α      lambda       -0.2593141E-02
   maximum displ.:     0.1337542 α      in ANC's #3, #4, #13, ...

........................................................................
.............................. CYCLE   35 ..............................
........................................................................

 iter      E             dE          RMSdq      gap      omega  full diag
   1    -22.4631252 -0.224631E+02  0.203E-01    2.79       0.0  T
   2    -22.4631526 -0.274739E-04  0.128E-01    2.79       1.0  T
   3    -22.4631414  0.112930E-04  0.407E-02    2.82       1.0  T
   4    -22.4631612 -0.198864E-04  0.158E-02    2.80       1.7  T
   5    -22.4631625 -0.123389E-05  0.910E-03    2.80       2.9  T
   6    -22.4631627 -0.229270E-06  0.399E-03    2.80       6.7  T
   7    -22.4631628 -0.108135E-06  0.125E-03    2.80      21.4  T
   8    -22.4631628 -0.358617E-08  0.578E-04    2.80      46.3  T
   9    -22.4631628 -0.900407E-09  0.125E-04    2.80     213.1  T
     SCC iter.                  ...        0 min,  0.004 sec
     gradient                   ...        0 min,  0.001 sec
 * total energy  :   -22.2079536 Eh     change       -0.1902317E-02 Eh
   gradient norm :     0.0272789 Eh/α   predicted    -0.1345682E-02 ( -29.26%)
   displ. norm   :     0.5404319 α      lambda       -0.3686224E-02
   maximum displ.:     0.3384417 α      in ANC's #4, #3, #1, ...

........................................................................
.............................. CYCLE   36 ..............................
........................................................................

 iter      E             dE          RMSdq      gap      omega  full diag
   1    -22.4660250 -0.224660E+02  0.368E-01    2.79       0.0  T
   2    -22.4660836 -0.586801E-04  0.232E-01    2.78       1.0  T
   3    -22.4659885  0.951527E-04  0.979E-02    2.82       1.0  T
   4    -22.4661067 -0.118189E-03  0.251E-02    2.81       1.1  T
   5    -22.4661104 -0.371443E-05  0.129E-02    2.80       2.1  T
   6    -22.4661107 -0.316086E-06  0.652E-03    2.81       4.1  T
   7    -22.4661109 -0.169005E-06  0.171E-03    2.80      15.6  T
   8    -22.4661109 -0.246623E-07  0.724E-04    2.80      36.9  T
   9    -22.4661109 -0.835151E-09  0.126E-04    2.80     212.6  T
     SCC iter.                  ...        0 min,  0.004 sec
     gradient                   ...        0 min,  0.001 sec
 * total energy  :   -22.2080091 Eh     change       -0.5543177E-04 Eh
   gradient norm :     0.1679907 Eh/α   predicted    -0.2381449E-02 (4196.18%)
   displ. norm   :     0.1681598 α      lambda       -0.5452443E-02
   maximum displ.:     0.1015986 α      in ANC's #3, #1, #4, ...

........................................................................
.............................. CYCLE   37 ..............................
........................................................................

 iter      E             dE          RMSdq      gap      omega  full diag
   1    -22.4717036 -0.224717E+02  0.155E-01    2.79       0.0  T
   2    -22.4717147 -0.110557E-04  0.954E-02    2.80       1.0  T
   3    -22.4717105  0.414570E-05  0.253E-02    2.81       1.1  T
   4    -22.4717175 -0.692625E-05  0.734E-03    2.80       3.6  T
   5    -22.4717178 -0.311574E-06  0.364E-03    2.81       7.4  T
   6    -22.4717178 -0.349267E-08  0.133E-03    2.81      20.1  T
   7    -22.4717178 -0.988682E-08  0.631E-04    2.81      42.4  T
   8    -22.4717178 -0.357997E-08  0.239E-04    2.81     111.9  T
     SCC iter.                  ...        0 min,  0.004 sec
     gradient                   ...        0 min,  0.001 sec
 * total energy  :   -22.2095650 Eh     change       -0.1555983E-02 Eh
   gradient norm :     0.0710458 Eh/α   predicted    -0.2803311E-02 (  80.16%)
   displ. norm   :     0.3263661 α      lambda       -0.6968155E-02
   maximum displ.:     0.1999472 α      in ANC's #3, #4, #10, ...

........................................................................
.............................. CYCLE   38 ..............................
........................................................................

 iter      E             dE          RMSdq      gap      omega  full diag
   1    -22.4586016 -0.224586E+02  0.445E-01    2.97       0.0  T
   2    -22.4589014 -0.299794E-03  0.293E-01    2.90       1.0  T
   3    -22.4589213 -0.199001E-04  0.659E-02    2.91       1.0  T
   4    -22.4589374 -0.161143E-04  0.365E-02    2.88       1.0  T
   5    -22.4589466 -0.917984E-05  0.207E-02    2.88       1.3  T
   6    -22.4589478 -0.122198E-05  0.874E-03    2.89       3.1  T
   7    -22.4589485 -0.669282E-06  0.325E-03    2.89       8.2  T
   8    -22.4589485 -0.268165E-07  0.109E-03    2.89      24.6  T
   9    -22.4589485 -0.448500E-08  0.257E-04    2.89     104.2  T
  10    -22.4589485 -0.159268E-09  0.736E-05    2.89     363.4  T
     SCC iter.                  ...        0 min,  0.005 sec
     gradient                   ...        0 min,  0.001 sec
 * total energy  :   -22.2069279 Eh     change        0.2637120E-02 Eh
   gradient norm :     0.0798156 Eh/α   predicted    -0.3855168E-02 (-246.19%)
   displ. norm   :     0.2061829 α      lambda       -0.5377633E-02
   maximum displ.:     0.1101219 α      in ANC's #3, #6, #9, ...

........................................................................
.............................. CYCLE   39 ..............................
........................................................................

 iter      E             dE          RMSdq      gap      omega  full diag
   1    -22.4648466 -0.224648E+02  0.251E-01    2.83       0.0  T
   2    -22.4649178 -0.712253E-04  0.162E-01    2.84       1.0  T
   3    -22.4648888  0.290186E-04  0.632E-02    2.87       1.0  T
   4    -22.4649283 -0.395675E-04  0.269E-02    2.86       1.0  T
   5    -22.4649347 -0.632755E-05  0.108E-02    2.86       2.5  T
   6    -22.4649347 -0.723897E-07  0.591E-03    2.86       4.5  T
   7    -22.4649350 -0.253979E-06  0.145E-03    2.86      18.5  T
   8    -22.4649350 -0.421102E-08  0.791E-04    2.86      33.8  T
   9    -22.4649350 -0.197344E-08  0.105E-04    2.86     255.3  T
     SCC iter.                  ...        0 min,  0.004 sec
     gradient                   ...        0 min,  0.001 sec
 * total energy  :   -22.2110040 Eh     change       -0.4076125E-02 Eh
   gradient norm :     0.0204112 Eh/α   predicted    -0.2803115E-02 ( -31.23%)
   displ. norm   :     0.3648234 α      lambda       -0.3602184E-02
   maximum displ.:     0.1441076 α      in ANC's #4, #3, #6, ...

........................................................................
.............................. CYCLE   40 ..............................
........................................................................

 iter      E             dE          RMSdq      gap      omega  full diag
   1    -22.4752496 -0.224752E+02  0.350E-01    2.84       0.0  T
   2    -22.4753142 -0.645255E-04  0.219E-01    2.84       1.0  T
   3    -22.4753065  0.766811E-05  0.537E-02    2.89       1.0  T
   4    -22.4753381 -0.316104E-04  0.251E-02    2.86       1.1  T
   5    -22.4753406 -0.250110E-05  0.138E-02    2.86       1.9  T
   6    -22.4753411 -0.472530E-06  0.695E-03    2.87       3.8  T
   7    -22.4753414 -0.330028E-06  0.178E-03    2.87      15.0  T
   8    -22.4753414 -0.216326E-07  0.820E-04    2.87      32.6  T
   9    -22.4753414 -0.128616E-08  0.227E-04    2.87     118.0  T
     SCC iter.                  ...        0 min,  0.004 sec
     gradient                   ...        0 min,  0.001 sec
 * total energy  :   -22.2093511 Eh     change        0.1652971E-02 Eh
   gradient norm :     0.0804588 Eh/α   predicted    -0.2040808E-02 (-223.46%)
   displ. norm   :     0.1639471 α      lambda       -0.7204270E-02
   maximum displ.:     0.0736044 α      in ANC's #3, #6, #10, ...

........................................................................
.............................. CYCLE   41 ..............................
........................................................................

 iter      E             dE          RMSdq      gap      omega  full diag
   1    -22.4678410 -0.224678E+02  0.224E-01    2.89       0.0  T
   2    -22.4678712 -0.302546E-04  0.140E-01    2.88       1.0  T
   3    -22.4678784 -0.717965E-05  0.222E-02    2.87       1.2  T
   4    -22.4678804 -0.197527E-05  0.131E-02    2.86       2.0  T
   5    -22.4678813 -0.938724E-06  0.710E-03    2.87       3.8  T
   6    -22.4678815 -0.149655E-06  0.157E-03    2.87      17.0  T
   7    -22.4678815 -0.583004E-08  0.902E-04    2.87      29.6  T
   8    -22.4678815 -0.326889E-09  0.523E-04    2.87      51.1  T
     SCC iter.                  ...        0 min,  0.004 sec
     gradient                   ...        0 min,  0.001 sec
 * total energy  :   -22.2121926 Eh     change       -0.2841526E-02 Eh
   gradient norm :     0.0267467 Eh/α   predicted    -0.3698950E-02 (  30.17%)
   displ. norm   :     0.0638119 α      lambda       -0.4351145E-03
   maximum displ.:     0.0300756 α      in ANC's #4, #8, #6, ...

........................................................................
.............................. CYCLE   42 ..............................
........................................................................

 iter      E             dE          RMSdq      gap      omega  full diag
   1    -22.4696729 -0.224697E+02  0.448E-02    2.88       0.0  T
   2    -22.4696747 -0.176759E-05  0.285E-02    2.87       1.0  T
   3    -22.4696738  0.858552E-06  0.166E-02    2.88       1.6  T
   4    -22.4696762 -0.235974E-05  0.255E-03    2.87      10.5  T
   5    -22.4696762 -0.323459E-07  0.160E-03    2.87      16.7  T
   6    -22.4696762 -0.966991E-08  0.523E-04    2.87      51.1  T
   7    -22.4696762 -0.858524E-09  0.133E-04    2.87     200.7  T
     SCC iter.                  ...        0 min,  0.003 sec
     gradient                   ...        0 min,  0.001 sec
 * total energy  :   -22.2125609 Eh     change       -0.3682879E-03 Eh
   gradient norm :     0.0114811 Eh/α   predicted    -0.2184422E-03 ( -40.69%)
   displ. norm   :     0.3636468 α      lambda       -0.1408222E-02
   maximum displ.:     0.2477138 α      in ANC's #4, #8, #9, ...
 * RMSD in coord.:     0.8413547 α      energy gain  -0.2474888E-01 Eh

generating ANC from model Hessian ...
Using Lindh-Hessian (1995)
 Shifting diagonal of input Hessian by    8.9168326521145581E-003
 Lowest  eigenvalues of input Hessian
    0.000000    0.000000    0.000000    0.000000    0.000000    0.000000
    0.010000    0.011954    0.015895    0.021343    0.031931    0.039332
    0.045130    0.048805    0.064939    0.088186    0.091405    0.107771
 Highest eigenvalues
    1.380664    1.572311    1.755722    1.950570    5.939142   11.260921


........................................................................
.............................. CYCLE   43 ..............................
........................................................................

 iter      E             dE          RMSdq      gap      omega  full diag
   1    -22.4719240 -0.224719E+02  0.192E-01    2.92       0.0  T
   2    -22.4719572 -0.332384E-04  0.123E-01    2.88       1.0  T
   3    -22.4719382  0.190890E-04  0.730E-02    2.93       1.0  T
   4    -22.4719869 -0.487006E-04  0.100E-02    2.90       2.7  T
   5    -22.4719869 -0.475979E-07  0.630E-03    2.90       4.2  T
   6    -22.4719870 -0.128850E-06  0.360E-03    2.90       7.4  T
   7    -22.4719871 -0.618708E-07  0.115E-03    2.90      23.2  T
   8    -22.4719871 -0.101447E-07  0.263E-04    2.90     101.5  T
   9    -22.4719871 -0.129006E-09  0.957E-05    2.90     279.4  T
     SCC iter.                  ...        0 min,  0.004 sec
     gradient                   ...        0 min,  0.001 sec
 * total energy  :   -22.2134088 Eh     change       -0.8479040E-03 Eh
   gradient norm :     0.0225090 Eh/α   predicted     0.0000000E+00 (-100.00%)
   displ. norm   :     0.1022420 α      lambda       -0.5827626E-03
   maximum displ.:     0.0658469 α      in ANC's #2, #7, #6, ...

........................................................................
.............................. CYCLE   44 ..............................
........................................................................

 iter      E             dE          RMSdq      gap      omega  full diag
   1    -22.4728129 -0.224728E+02  0.618E-02    2.91       0.0  T
   2    -22.4728147 -0.185916E-05  0.381E-02    2.90       1.0  T
   3    -22.4728112  0.351412E-05  0.225E-02    2.91       1.2  T
   4    -22.4728165 -0.529729E-05  0.318E-03    2.90       8.4  T
   5    -22.4728166 -0.926827E-07  0.119E-03    2.90      22.4  T
   6    -22.4728166 -0.713426E-08  0.678E-04    2.90      39.4  T
   7    -22.4728166 -0.185505E-08  0.173E-04    2.90     154.4  T
     SCC iter.                  ...        0 min,  0.003 sec
     gradient                   ...        0 min,  0.001 sec
 * total energy  :   -22.2138363 Eh     change       -0.4274795E-03 Eh
   gradient norm :     0.0072741 Eh/α   predicted    -0.2944280E-03 ( -31.12%)
   displ. norm   :     0.1643726 α      lambda       -0.4291851E-03
   maximum displ.:     0.1013300 α      in ANC's #2, #7, #6, ...

........................................................................
.............................. CYCLE   45 ..............................
........................................................................

 iter      E             dE          RMSdq      gap      omega  full diag
   1    -22.4722264 -0.224722E+02  0.997E-02    2.92       0.0  T
   2    -22.4722322 -0.573590E-05  0.617E-02    2.90       1.0  T
   3    -22.4722238  0.841434E-05  0.354E-02    2.93       1.0  T
   4    -22.4722374 -0.135948E-04  0.345E-03    2.91       7.7  T
   5    -22.4722374 -0.599234E-07  0.179E-03    2.91      14.9  T
   6    -22.4722374 -0.513776E-08  0.995E-04    2.91      26.9  T
   7    -22.4722374 -0.393016E-08  0.543E-04    2.91      49.2  T
     SCC iter.                  ...        0 min,  0.003 sec
     gradient                   ...        0 min,  0.001 sec
 * total energy  :   -22.2140756 Eh     change       -0.2393299E-03 Eh
   gradient norm :     0.0192710 Eh/α   predicted    -0.2203901E-03 (  -7.91%)
   displ. norm   :     0.0920706 α      lambda       -0.1850512E-03
   maximum displ.:     0.0427060 α      in ANC's #6, #1, #2, ...

........................................................................
.............................. CYCLE   46 ..............................
[...]
.............................. CYCLE  129 ..............................
........................................................................

 iter      E             dE          RMSdq      gap      omega  full diag
   1    -22.4791595 -0.224792E+02  0.500E-02    2.90       0.0  T
   2    -22.4791600 -0.535696E-06  0.306E-02    2.90       1.0  T
   3    -22.4791600  0.423879E-07  0.508E-03    2.90       5.3  T
   4    -22.4791602 -0.263375E-06  0.228E-03    2.90      11.7  T
   5    -22.4791603 -0.321585E-07  0.732E-04    2.90      36.5  T
   6    -22.4791603  0.188848E-09  0.415E-04    2.90      64.5  T
     SCC iter.                  ...        0 min,  0.002 sec
     gradient                   ...        0 min,  0.001 sec
 * total energy  :   -22.2175958 Eh     change       -0.4323821E-04 Eh
   gradient norm :     0.0014333 Eh/α   predicted    -0.4717653E-04 (   9.11%)
   displ. norm   :     0.0175784 α      lambda       -0.1803071E-05
   maximum displ.:     0.0129053 α      in ANC's #3, #1, #2, ...

........................................................................
.............................. CYCLE  130 ..............................
........................................................................

 iter      E             dE          RMSdq      gap      omega  full diag
   1    -22.4793139 -0.224793E+02  0.882E-03    2.90       0.0  T
   2    -22.4793139 -0.131134E-07  0.527E-03    2.90       5.1  T
   3    -22.4793139  0.193238E-07  0.133E-03    2.90      20.2  T
   4    -22.4793139 -0.238819E-07  0.375E-04    2.90      71.3  T
   5    -22.4793139 -0.484953E-09  0.171E-04    2.90     156.7  T
     SCC iter.                  ...        0 min,  0.002 sec
     gradient                   ...        0 min,  0.001 sec
 * total energy  :   -22.2175975 Eh     change       -0.1745916E-05 Eh
   gradient norm :     0.0004261 Eh/α   predicted    -0.9010012E-06 ( -48.39%)
   displ. norm   :     0.0277387 α      lambda       -0.1346723E-05
   maximum displ.:     0.0189711 α      in ANC's #3, #1, #2, ...

   *** GEOMETRY OPTIMIZATION CONVERGED AFTER 130 ITERATIONS ***

------------------------------------------------------------------------
 total energy gain   :        -0.3575851 Eh     -224.3880 kcal/mol
 total RMSD          :         1.8781345 a0        0.9939 Å
 total power (kW/mol):        -7.2218430 (step)-1329.5021 (real)
------------------------------------------------------------------------

 ANCopt (total)                0 d,  0 h,  0 min,  0.706 sec
 optimizer setup                ...        0 min,  0.000 sec (  0.018%)
 model hessian                  ...        0 min,  0.013 sec (  1.900%)
 ANC generation                 ...        0 min,  0.002 sec (  0.289%)
 coordinate transformation      ...        0 min,  0.001 sec (  0.097%)
 single point calculation       ...        0 min,  0.653 sec ( 92.498%)
 optimization log               ...        0 min,  0.012 sec (  1.683%)
 hessian update                 ...        0 min,  0.001 sec (  0.193%)
 rational function              ...        0 min,  0.015 sec (  2.182%)

================
 final structure:
================
14
 xtb: 6.6.1 (8d0f1dd)
O           -2.77104305008470        0.71128161061511        1.85174663056270
O           -0.56962197622192       -0.20211302737064        0.28306493359403
C           -0.39102229002361        0.34244053582432       -0.94544493516850
C            0.26379813869486        0.95158619153011        0.23595353719562
C            1.56076251232934        0.28362532436330        0.37825636279059
C            1.46011357660153       -0.75551095506226       -0.44967997149750
C            0.52459165436248       -0.63514441490535       -1.61562803596908
H           -2.06333477018075        0.29711481605982        1.34030360168530
H           -3.48380025514943        0.07184160755500        1.89535868489146
H           -0.08260911318211        1.84401749498358        0.72737166691936
H            2.27279052177963        0.44244627365233        1.16281667210866
H            2.23593421105399       -1.51157129104228       -0.51439945551888
H            1.04612350088337       -0.28104825063792       -2.50536823264157
H           -0.00268266086768       -1.55884591556334       -1.84430145895318

 Bond Distances (Angstroems)
 ---------------------------
O1-H8=0.9664         O1-H9=0.9585         O2-C3=1.3556         O2-C4=1.4240         C3-O2=1.3556         C3-C4=1.4817         
C3-C7=1.4977         C4-O2=1.4240         C4-C3=1.4817         C4-C5=1.4658         C4-H10=1.0761        C5-C4=1.4658         
C5-C6=1.3324         C5-H11=1.0713        C6-C5=1.3324         C6-C7=1.4997         C6-H12=1.0852        C7-C3=1.4977         
C7-C6=1.4997         C7-H13=1.0904        C7-H14=1.0879        H8-O1=0.9664         H9-O1=0.9585         H10-C4=1.0761        
H11-C5=1.0713        H12-C6=1.0852        H13-C7=1.0904        H14-C7=1.0879        
 C  H  Rav=1.0822 sigma=0.0073  Rmin=1.0713  Rmax=1.0904     5
 C  C  Rav=1.4555 sigma=0.0627  Rmin=1.3324  Rmax=1.4997     5
 O  H  Rav=0.9625 sigma=0.0039  Rmin=0.9585  Rmax=0.9664     2
 O  C  Rav=1.3898 sigma=0.0342  Rmin=1.3556  Rmax=1.4240     2

 selected bond angles (degree)
 --------------------
H9-O1-H8=106.42                C4-O2-C3= 64.37                C4-C3-O2= 60.05                C7-C3-O2=102.94                
C7-C3-C4=110.79                C3-C4-O2= 55.57                C5-C4-O2= 98.36                C5-C4-C3=106.33                
H10-C4-O2=117.93               H10-C4-C3=124.25               H10-C4-C5=128.20               C6-C5-C4=103.19                
H11-C5-C4=126.27               H11-C5-C6=128.38               C7-C6-C5=117.88                H12-C6-C5=121.76               
H12-C6-C7=117.10               C6-C7-C3= 94.93                H13-C7-C3=116.46               H13-C7-C6=111.23               
H14-C7-C3=110.61               H14-C7-C6=113.43               H14-C7-H13=109.63              

 selected dihedral angles (degree)
 ---------------------------------
C7-C3-O2-C4=106.74            C5-C4-O2-C3=255.90            H10-C4-O2-C3=114.14           O2-C4-C3-C7=266.70            
C5-C4-C3-O2= 89.03            C5-C4-C3-C7=355.72            H10-C4-C3-O2=257.27           H10-C4-C3-C7=163.97           
C6-C5-C4-O2= 44.36            C6-C5-C4-C3=347.89            C6-C5-C4-H10=180.26           H11-C5-C4-O2=240.00           
H11-C5-C4-C3=183.53           H11-C5-C4-H10= 15.90          C7-C6-C5-C4= 26.42            C7-C6-C5-H11=190.32           
H12-C6-C5-C4=185.42           H12-C6-C5-H11=349.32          C6-C7-C3-O2=313.94            C6-C7-C3-C4= 16.51            
H13-C7-C3-O2=197.27           H13-C7-C3-C4=259.85           H14-C7-C3-O2= 71.25           H14-C7-C3-C4=133.82           
C3-C7-C6-C5=332.48            C3-C7-C6-H12=172.50           H13-C7-C6-C5= 93.36           H13-C7-C6-H12=293.38          
H14-C7-C6-C5=217.50           H14-C7-C6-H12= 57.52          

 CMA Distance (Angstroems)
 ---------------------------
R(CMA):  3.8624
           -------------------------------------------------
          |                Final Singlepoint                |
           -------------------------------------------------

          ...................................................
          :                      SETUP                      :
          :.................................................:
          :  # basis functions                  35          :
          :  # atomic orbitals                  35          :
          :  # shells                           21          :
          :  # electrons                        39          :
          :  max. iterations                   250          :
          :  Hamiltonian                  GFN2-xTB          :
          :  restarted?                      false          :
          :  GBSA solvation                  false          :
          :  PC potential                    false          :
          :  electronic temp.          300.0000000     K    :
          :  accuracy                    1.0000000          :
          :  -> integral cutoff          0.2500000E+02      :
          :  -> integral neglect         0.1000000E-07      :
          :  -> SCF convergence          0.1000000E-05 Eh   :
          :  -> wf. convergence          0.1000000E-03 e    :
          :  Broyden damping             0.4000000          :
          ...................................................

 iter      E             dE          RMSdq      gap      omega  full diag
   1    -22.4793139 -0.224793E+02  0.733E-05    2.90       0.0  T
   2    -22.4793139 -0.128253E-11  0.497E-05    2.90     538.2  T
   3    -22.4793139 -0.287770E-11  0.356E-05    2.90     751.6  T

   *** convergence criteria satisfied after 3 iterations ***

         #    Occupation            Energy/Eh            Energy/eV
      -------------------------------------------------------------
         1        2.0000           -0.7401882             -20.1415
       ...           ...                  ...                  ...
        14        2.0000           -0.4845593             -13.1855
        15        2.0000           -0.4711149             -12.8197
        16        2.0000           -0.4570399             -12.4367
        17        2.0000           -0.4455891             -12.1251
        18        2.0000           -0.4245844             -11.5535
        19        2.0000           -0.4114554             -11.1963
        20        1.0000           -0.3472695              -9.4497 (HOMO)
        21                         -0.2406236              -6.5477 (LUMO)
        22                         -0.0814626              -2.2167
        23                          0.0546486               1.4871
        24                          0.0789728               2.1490
        25                          0.0907642               2.4698
       ...                                ...                  ...
        35                          0.6299711              17.1424
      -------------------------------------------------------------
                  HL-Gap            0.1066460 Eh            2.9020 eV
             Fermi-level           -0.3366545 Eh           -9.1608 eV

 SCC (total)                   0 d,  0 h,  0 min,  0.003 sec
 SCC setup                      ...        0 min,  0.000 sec (  3.553%)
 Dispersion                     ...        0 min,  0.000 sec (  2.078%)
 classical contributions        ...        0 min,  0.000 sec (  0.873%)
 integral evaluation            ...        0 min,  0.000 sec ( 10.525%)
 iterations                     ...        0 min,  0.001 sec ( 48.684%)
 molecular gradient             ...        0 min,  0.001 sec ( 28.915%)
 printout                       ...        0 min,  0.000 sec (  4.725%)

         :::::::::::::::::::::::::::::::::::::::::::::::::::::
         ::                     SUMMARY                     ::
         :::::::::::::::::::::::::::::::::::::::::::::::::::::
         :: total energy             -22.217597537393 Eh    ::
         :: gradient norm              0.000426960257 Eh/a0 ::
         :: HOMO-LUMO gap              2.901984552247 eV    ::
         ::.................................................::
         :: SCC energy               -22.479313939676 Eh    ::
         :: -> isotropic ES            0.047649061001 Eh    ::
         :: -> anisotropic ES         -0.003082930483 Eh    ::
         :: -> anisotropic XC          0.003823364540 Eh    ::
         :: -> dispersion             -0.007999518751 Eh    ::
         :: repulsion energy           0.261077420117 Eh    ::
         :: add. restraining           0.000628102442 Eh    ::
         :: total charge              -0.000000000000 e     ::
         :::::::::::::::::::::::::::::::::::::::::::::::::::::

           -------------------------------------------------
          |                Property Printout                |
           -------------------------------------------------

    * Orbital Energies and Occupations

         #    Occupation            Energy/Eh            Energy/eV
      -------------------------------------------------------------
         1        2.0000           -0.7401882             -20.1415
       ...           ...                  ...                  ...
         8        2.0000           -0.5670959             -15.4315
         9        2.0000           -0.5452494             -14.8370
        10        2.0000           -0.5364736             -14.5982
        11        2.0000           -0.5301503             -14.4261
        12        2.0000           -0.5027981             -13.6818
        13        2.0000           -0.4921697             -13.3926
        14        2.0000           -0.4845593             -13.1855
        15        2.0000           -0.4711149             -12.8197
        16        2.0000           -0.4570399             -12.4367
        17        2.0000           -0.4455891             -12.1251
        18        2.0000           -0.4245844             -11.5535
        19        2.0000           -0.4114554             -11.1963
        20        1.0000           -0.3472695              -9.4497 (HOMO)
        21                         -0.2406236              -6.5477 (LUMO)
        22                         -0.0814626              -2.2167
        23                          0.0546486               1.4871
        24                          0.0789728               2.1490
        25                          0.0907642               2.4698
        26                          0.1109840               3.0200
        27                          0.1406680               3.8278
        28                          0.1776741               4.8348
        29                          0.1868942               5.0857
        30                          0.2347090               6.3868
        31                          0.2436047               6.6288
       ...                                ...                  ...
        35                          0.6299711              17.1424
      -------------------------------------------------------------
                  HL-Gap            0.1066460 Eh            2.9020 eV
             Fermi-level           -0.3366545 Eh           -9.1608 eV

     #   Z          covCN         q      C6AA      α(0)
     1   8 O        1.610    -0.586    24.864     6.730
     2   8 O        1.742    -0.279    18.616     5.826
     3   6 C        2.968     0.032    27.286     8.568
     4   6 C        3.888     0.100    18.885     6.178
     5   6 C        2.944    -0.046    29.134     8.853
     6   6 C        3.174    -0.009    27.854     8.620
     7   6 C        3.833    -0.048    21.408     6.583
     8   1 H        0.805     0.295     0.738     1.349
     9   1 H        0.806     0.273     0.809     1.413
    10   1 H        0.926     0.056     2.242     2.342
    11   1 H        0.926     0.051     2.303     2.373
    12   1 H        0.925     0.034     2.526     2.485
    13   1 H        0.924     0.056     2.243     2.342
    14   1 H        0.925     0.071     2.079     2.255

 Mol. C6AA /au·bohr⁶  :       1879.196005
 Mol. C8AA /au·bohr⁸  :      42979.835130
 Mol. α(0) /au        :         65.916595


Wiberg/Mayer (AO) data.
largest (>0.10) Wiberg bond orders for each atom

 ---------------------------------------------------------------------------
     #   Z sym  total        # sym  WBO       # sym  WBO       # sym  WBO
 ---------------------------------------------------------------------------
     1   8 O    1.827 --     9 H    0.925     8 H    0.883
     2   8 O    2.194 --     3 C    1.162     4 C    0.873
     3   6 C    3.255 --     2 O    1.162     7 C    1.006     4 C    0.930
     4   6 C    3.872 --     5 C    1.050    10 H    0.968     3 C    0.930
                             2 O    0.873
     5   6 C    3.985 --     6 C    1.847     4 C    1.050    11 H    0.968
     6   6 C    3.978 --     5 C    1.847     7 C    1.009    12 H    0.965
     7   6 C    3.991 --     6 C    1.009     3 C    1.006    14 H    0.958
                            13 H    0.954
     8   1 H    0.913 --     1 O    0.883
     9   1 H    0.926 --     1 O    0.925
    10   1 H    0.997 --     4 C    0.968
    11   1 H    0.997 --     5 C    0.968
    12   1 H    0.999 --     6 C    0.965
    13   1 H    0.997 --     7 C    0.954
    14   1 H    0.995 --     7 C    0.958
 ---------------------------------------------------------------------------

Topologies differ in total number of bonds
Writing topology from bond orders to xtbtopo.mol

molecular dipole:
                 x           y           z       tot (Debye)
 q only:        0.713      -0.329      -0.724
   full:        0.796      -0.654      -0.623       3.060
molecular quadrupole (traceless):
                xx          xy          yy          xz          yz          zz
 q only:        0.632       4.354       0.122       2.263      -1.478      -0.755
  q+dip:        1.292       5.556       0.298       3.130      -0.637      -1.590
   full:        1.929       6.107      -0.039       2.497      -1.367      -1.891

           -------------------------------------------------
          |                Geometry Summary                 |
           -------------------------------------------------

      molecular mass/u    :       99.1080746
   center of mass at/Å    :       -0.1258346       0.0977800       0.0568605
  moments of inertia/u·Å² :        0.8394302E+02   0.3150588E+03   0.3541506E+03
rotational constants/cm⁻¹ :        0.2008223E+00   0.5350631E-01   0.4760019E-01

 * 13 selected distances

     #   Z          #   Z                                           value/Å
     2   8 O        3   6 C                                       1.3556081
     2   8 O        4   6 C                                       1.4240193
     3   6 C        4   6 C                                       1.4817392
     4   6 C        5   6 C                                       1.4657895
     5   6 C        6   6 C                                       1.3324464
     6   6 C        7   6 C                                       1.4997082 (max)
     1   8 O        8   1 H                                       0.9664157
     1   8 O        9   1 H                                       0.9585450 (min)
     4   6 C       10   1 H                                       1.0760686
     5   6 C       11   1 H                                       1.0713277
     6   6 C       12   1 H                                       1.0852252
     7   6 C       13   1 H                                       1.0904207
     7   6 C       14   1 H                                       1.0879037

 * 4 distinct bonds (by element types)

   Z      Z             #   av. dist./Å        max./Å        min./Å
   1 H    6 C           5     1.0821892     1.0904207     1.0713277
   6 C    6 C           4     1.4449208     1.4997082     1.3324464
   1 H    8 O           2     0.9624803     0.9664157     0.9585450
   6 C    8 O           2     1.3898137     1.4240193     1.3556081


optimized geometry written to: xtbopt.xyz


           -------------------------------------------------
          | TOTAL ENERGY              -22.217597537393 Eh   |
          | GRADIENT NORM               0.000426960257 Eh/α |
          | HOMO-LUMO GAP               2.901984552247 eV   |
           -------------------------------------------------

------------------------------------------------------------------------
 * finished run on 2025/05/23 at 12:05:47.858     
------------------------------------------------------------------------
 total:
 * wall-time:     0 d,  0 h,  0 min,  0.731 sec
 *  cpu-time:     0 d,  0 h,  0 min, 10.928 sec
 * ratio c/w:    14.952 speedup
 SCF:
 * wall-time:     0 d,  0 h,  0 min,  0.013 sec
 *  cpu-time:     0 d,  0 h,  0 min,  0.196 sec
 * ratio c/w:    14.661 speedup
 ANC optimizer:
 * wall-time:     0 d,  0 h,  0 min,  0.710 sec
 *  cpu-time:     0 d,  0 h,  0 min, 10.624 sec
 * ratio c/w:    14.968 speedup

