
                                 *****************
                                 * O   R   C   A *
                                 *****************

                                            #,                                       
                                            ###                                      
                                            ####                                     
                                            #####                                    
                                            ######                                   
                                           ########,                                 
                                     ,,################,,,,,                         
                               ,,#################################,,                 
                          ,,##########################################,,             
                       ,#########################################, ''#####,          
                    ,#############################################,,   '####,        
                  ,##################################################,,,,####,       
                ,###########''''           ''''###############################       
              ,#####''   ,,,,##########,,,,          '''####'''          '####       
            ,##' ,,,,###########################,,,                        '##       
           ' ,,###''''                  '''############,,,                           
         ,,##''                                '''############,,,,        ,,,,,,###''
      ,#''                                            '''#######################'''  
     '                                                          ''''####''''         
             ,#######,   #######,   ,#######,      ##                                
            ,#'     '#,  ##    ##  ,#'     '#,    #''#        ######   ,####,        
            ##       ##  ##   ,#'  ##            #'  '#       #        #'  '#        
            ##       ##  #######   ##           ,######,      #####,   #    #        
            '#,     ,#'  ##    ##  '#,     ,#' ,#      #,         ##   #,  ,#        
             '#######'   ##     ##  '#######'  #'      '#     #####' # '####'        



                  #######################################################
                  #                        -***-                        #
                  #          Department of theory and spectroscopy      #
                  #    Directorship and core code : Frank Neese         #
                  #        Max Planck Institute fuer Kohlenforschung    #
                  #                Kaiser Wilhelm Platz 1               #
                  #                 D-45470 Muelheim/Ruhr               #
                  #                      Germany                        #
                  #                                                     #
                  #                  All rights reserved                #
                  #                        -***-                        #
                  #######################################################


                         Program Version 5.0.4 -  RELEASE  -


 With contributions from (in alphabetic order):
   Daniel Aravena         : Magnetic Suceptibility
   Michael Atanasov       : Ab Initio Ligand Field Theory (pilot matlab implementation)
   Alexander A. Auer      : GIAO ZORA, VPT2 properties, NMR spectrum
   Ute Becker             : Parallelization
   Giovanni Bistoni       : ED, misc. LED, open-shell LED, HFLD
   Martin Brehm           : Molecular dynamics
   Dmytro Bykov           : SCF Hessian
   Vijay G. Chilkuri      : MRCI spin determinant printing, contributions to CSF-ICE
   Dipayan Datta          : RHF DLPNO-CCSD density
   Achintya Kumar Dutta   : EOM-CC, STEOM-CC
   Dmitry Ganyushin       : Spin-Orbit,Spin-Spin,Magnetic field MRCI
   Miquel Garcia          : C-PCM and meta-GGA Hessian, CC/C-PCM, Gaussian charge scheme
   Yang Guo               : DLPNO-NEVPT2, F12-NEVPT2, CIM, IAO-localization
   Andreas Hansen         : Spin unrestricted coupled pair/coupled cluster methods
   Benjamin Helmich-Paris : MC-RPA, TRAH-SCF, COSX integrals
   Lee Huntington         : MR-EOM, pCC
   Robert Izsak           : Overlap fitted RIJCOSX, COSX-SCS-MP3, EOM
   Marcus Kettner         : VPT2
   Christian Kollmar      : KDIIS, OOCD, Brueckner-CCSD(T), CCSD density, CASPT2, CASPT2-K
   Simone Kossmann        : Meta GGA functionals, TD-DFT gradient, OOMP2, MP2 Hessian
   Martin Krupicka        : Initial AUTO-CI
   Lucas Lang             : DCDCAS
   Marvin Lechner         : AUTO-CI (C++ implementation), FIC-MRCC
   Dagmar Lenk            : GEPOL surface, SMD
   Dimitrios Liakos       : Extrapolation schemes; Compound Job, initial MDCI parallelization
   Dimitrios Manganas     : Further ROCIS development; embedding schemes
   Dimitrios Pantazis     : SARC Basis sets
   Anastasios Papadopoulos: AUTO-CI, single reference methods and gradients
   Taras Petrenko         : DFT Hessian,TD-DFT gradient, ASA, ECA, R-Raman, ABS, FL, XAS/XES, NRVS
   Peter Pinski           : DLPNO-MP2, DLPNO-MP2 Gradient
   Christoph Reimann      : Effective Core Potentials
   Marius Retegan         : Local ZFS, SOC
   Christoph Riplinger    : Optimizer, TS searches, QM/MM, DLPNO-CCSD(T), (RO)-DLPNO pert. Triples
   Tobias Risthaus        : Range-separated hybrids, TD-DFT gradient, RPA, STAB
   Michael Roemelt        : Original ROCIS implementation
   Masaaki Saitow         : Open-shell DLPNO-CCSD energy and density
   Barbara Sandhoefer     : DKH picture change effects
   Avijit Sen             : IP-ROCIS
   Kantharuban Sivalingam : CASSCF convergence, NEVPT2, FIC-MRCI
   Bernardo de Souza      : ESD, SOC TD-DFT
   Georgi Stoychev        : AutoAux, RI-MP2 NMR, DLPNO-MP2 response
   Willem Van den Heuvel  : Paramagnetic NMR
   Boris Wezisla          : Elementary symmetry handling
   Frank Wennmohs         : Technical directorship


 We gratefully acknowledge several colleagues who have allowed us to
 interface, adapt or use parts of their codes:
   Stefan Grimme, W. Hujo, H. Kruse, P. Pracht,  : VdW corrections, initial TS optimization,
                  C. Bannwarth, S. Ehlert          DFT functionals, gCP, sTDA/sTD-DF
   Ed Valeev, F. Pavosevic, A. Kumar             : LibInt (2-el integral package), F12 methods
   Garnet Chan, S. Sharma, J. Yang, R. Olivares  : DMRG
   Ulf Ekstrom                                   : XCFun DFT Library
   Mihaly Kallay                                 : mrcc  (arbitrary order and MRCC methods)
   Jiri Pittner, Ondrej Demel                    : Mk-CCSD
   Frank Weinhold                                : gennbo (NPA and NBO analysis)
   Christopher J. Cramer and Donald G. Truhlar   : smd solvation model
   Lars Goerigk                                  : TD-DFT with DH, B97 family of functionals
   V. Asgeirsson, H. Jonsson                     : NEB implementation
   FAccTs GmbH                                   : IRC, NEB, NEB-TS, DLPNO-Multilevel, CI-OPT
                                                   MM, QMMM, 2- and 3-layer-ONIOM, Crystal-QMMM,
                                                   LR-CPCM, SF, NACMEs, symmetry and pop. for TD-DFT,
                                                   nearIR, NL-DFT gradient (VV10), updates on ESD,
                                                   ML-optimized integration grids
   S Lehtola, MJT Oliveira, MAL Marques          : LibXC Library
   Liviu Ungur et al                             : ANISO software


 Your calculation uses the libint2 library for the computation of 2-el integrals
 For citations please refer to: http://libint.valeyev.net

 Your ORCA version has been built with support for libXC version: 5.1.0
 For citations please refer to: https://tddft.org/programs/libxc/

 This ORCA versions uses:
   CBLAS   interface :  Fast vector & matrix operations
   LAPACKE interface :  Fast linear algebra routines
   SCALAPACK package :  Parallel linear algebra routines
   Shared memory     :  Shared parallel matrices
   BLAS/LAPACK       :  OpenBLAS 0.3.15  USE64BITINT DYNAMIC_ARCH NO_AFFINITY SkylakeX SINGLE_THREADED
        Core in use  :  SkylakeX
   Copyright (c) 2011-2014, The OpenBLAS Project


Your calculation utilizes the atom-pairwise dispersion correction
with the Becke-Johnson damping scheme (D3BJ)
Cite in your paper:
S.Grimme, S.Ehrlich, L.Goerigk, J Comput Chem, (2011), 32, 1456–1465 
S.Grimme, J.Antony, S.Ehrlich and H.Krieg, J.Chem.Phys., 132, (2010), 154104 
   

================================================================================

----- Orbital basis set information -----
Your calculation utilizes the basis: def2-SVP
   F. Weigend and R. Ahlrichs, Phys. Chem. Chem. Phys. 7, 3297 (2005).

----- AuxJ basis set information -----
Your calculation utilizes the auxiliary basis: def2/J
   F. Weigend, Phys. Chem. Chem. Phys. 8, 1057 (2006).

================================================================================
                                        WARNINGS
                       Please study these warnings very carefully!
================================================================================


WARNING: your system is open-shell and RHF/RKS was chosen
  ===> : WILL SWITCH to UHF/UKS


WARNING: Geometry Optimization
  ===> : Switching off AutoStart
         For restart on a previous wavefunction, please use MOREAD

INFO   : the flag for use of the SHARK integral package has been found!

================================================================================
                                       INPUT FILE
================================================================================
NAME = path_opt7_orca.inp
|  1> ! LooseOpt PBE0 RIJCOSX D3BJ def2-SVP def2/J 
|  2> %geom Constraints
|  3> { B 1 5 2.238712546129391 C }
|  4> { B 0 1 2.8024081417945363 C }
|  5>     end
|  6> end
|  7> %geom MaxIter 50 end
|  8> %output 
|  9> xyzfile=True 
| 10> end 
| 11> %scf 
| 12> maxiter 250 
| 13> end
| 14> %output
| 15> Print[P_Hirshfeld] = 1
| 16> end
| 17> % maxcore
| 18> 4000
| 19> %pal nprocs 8
| 20> end
| 21> *xyz 0 2
| 22> O   -2.47695658   0.65823382   1.81502012 
| 23> O   -0.43751635  -0.39225328   0.81464772 
| 24> C   -0.72360793   0.14622550  -0.44384081 
| 25> C    0.15512112   0.86582548   0.51111327 
| 26> C    1.54331849   0.46200581   0.22990183 
| 27> C    1.38880946  -0.61276109  -0.54728604 
| 28> C    0.12890310  -0.67263261  -1.35285749 
| 29> H   -2.29695669  -0.13979954   2.34139562 
| 30> H   -1.75992199   0.43561389  -0.63851748 
| 31> H   -0.18350482   1.71800247   1.10345704 
| 32> H    2.43402315   0.76766467   0.77647185 
| 33> H    2.21848983  -1.28773423  -0.78669846 
| 34> H    0.29056828  -0.25867030  -2.36249800 
| 35> H   -0.28076909  -1.68962062  -1.46030919 
| 36> *
| 37> 
| 38>                          ****END OF INPUT****
================================================================================

                       *****************************
                       * Geometry Optimization Run *
                       *****************************

Geometry optimization settings:
Update method            Update   .... BFGS
Choice of coordinates    CoordSys .... Z-matrix Internals
Initial Hessian          InHess   .... Almoef's Model

Convergence Tolerances:
Energy Change            TolE     ....  3.0000e-05 Eh
Max. Gradient            TolMAXG  ....  2.0000e-03 Eh/bohr
RMS Gradient             TolRMSG  ....  5.0000e-04 Eh/bohr
Max. Displacement        TolMAXD  ....  1.0000e-02 bohr
RMS Displacement         TolRMSD  ....  7.0000e-03 bohr
Strict Convergence                ....  False
------------------------------------------------------------------------------
                        ORCA OPTIMIZATION COORDINATE SETUP
------------------------------------------------------------------------------

The optimization will be done in new redundant internal coordinates
Making redundant internal coordinates   ...  (new redundants) done
Evaluating the initial hessian          ...  (Almloef) done
Evaluating the coordinates              ...  done
Calculating the B-matrix                .... done
Calculating the G-matrix                .... done
Diagonalizing the G-matrix              .... done
Imposing constraints:
 Iter   0:  RMS(Cart)=    0.0103761399 RMS(Int)=    0.3458504792
 Iter   1:  RMS(Cart)=    0.0097670452 RMS(Int)=    0.2916901466
 Iter   2:  RMS(Cart)=    0.0110409845 RMS(Int)=    0.2389222075
 Iter   3:  RMS(Cart)=    0.0117466553 RMS(Int)=    0.1864866091
 Iter   4:  RMS(Cart)=    0.0120558762 RMS(Int)=    0.1341336844
 Iter   5:  RMS(Cart)=    0.0115777511 RMS(Int)=    0.0846356108
 Iter   6:  RMS(Cart)=    0.0076386256 RMS(Int)=    0.0534782217
 Iter   7:  RMS(Cart)=    0.0049633069 RMS(Int)=    0.0338042145
 Iter   8:  RMS(Cart)=    0.0031928844 RMS(Int)=    0.0213690878
 Iter   9:  RMS(Cart)=    0.0020408163 RMS(Int)=    0.0135076502
 Iter  10:  RMS(Cart)=    0.0012990953 RMS(Int)=    0.0085378027
 Iter  11:  RMS(Cart)=    0.0008247837 RMS(Int)=    0.0053962162
 Iter  12:  RMS(Cart)=    0.0005227731 RMS(Int)=    0.0034104812
 Iter  13:  RMS(Cart)=    0.0003309965 RMS(Int)=    0.0021554123
 Iter  14:  RMS(Cart)=    0.0002094296 RMS(Int)=    0.0013621888
 Iter  15:  RMS(Cart)=    0.0001324537 RMS(Int)=    0.0008608732
 Iter  16:  RMS(Cart)=    0.0000837471 RMS(Int)=    0.0005440488
 Iter  17:  RMS(Cart)=    0.0000529418 RMS(Int)=    0.0003438226
 Iter  18:  RMS(Cart)=    0.0000334640 RMS(Int)=    0.0002172849
 Iter  19:  RMS(Cart)=    0.0000211508 RMS(Int)=    0.0001373169
 Iter  20:  RMS(Cart)=    0.0000133676 RMS(Int)=    0.0000867796
 Iter  21:  RMS(Cart)=    0.0000084483 RMS(Int)=    0.0000548417
 Iter  22:  RMS(Cart)=    0.0000053392 RMS(Int)=    0.0000346581
 Iter  23:  RMS(Cart)=    0.0000033743 RMS(Int)=    0.0000219027
 Iter  24:  RMS(Cart)=    0.0000021324 RMS(Int)=    0.0000138417
 Iter  25:  RMS(Cart)=    0.0000013476 RMS(Int)=    0.0000087475
 Iter  26:  RMS(Cart)=    0.0000008517 RMS(Int)=    0.0000055281
 Iter  27:  RMS(Cart)=    0.0000005382 RMS(Int)=    0.0000034936
 Iter  28:  RMS(Cart)=    0.0000003401 RMS(Int)=    0.0000022078
 Iter  29:  RMS(Cart)=    0.0000002150 RMS(Int)=    0.0000013953
 Iter  30:  RMS(Cart)=    0.0000001358 RMS(Int)=    0.0000008818
 Iter  31:  RMS(Cart)=    0.0000000858 RMS(Int)=    0.0000005572
 Iter  32:  RMS(Cart)=    0.0000000543 RMS(Int)=    0.0000003522
 Iter  33:  RMS(Cart)=    0.0000000343 RMS(Int)=    0.0000002225
 Iter  34:  RMS(Cart)=    0.0000000217 RMS(Int)=    0.0000001406
 Iter  35:  RMS(Cart)=    0.0000000137 RMS(Int)=    0.0000000889
CONVERGED
The first mode is                       ....  108
The number of degrees of freedom        ....   36
Storing new coordinates                 .... done

    -----------------------------------------------------------------
                    Redundant Internal Coordinates


    -----------------------------------------------------------------
         Definition                    Initial Value    Approx d2E/dq
    -----------------------------------------------------------------
      1. B(O   1,O   0)                  2.8024         0.008409 C 
      2. B(C   2,O   1)                  1.4073         0.542536   
      3. B(C   2,O   0)                  3.0433         0.002142   
      4. B(C   3,O   1)                  1.4273         0.494950   
      5. B(C   3,O   0)                  3.0801         0.001851   
      6. B(C   3,C   2)                  1.4853         0.442532   
      7. B(C   4,C   3)                  1.4867         0.460873   
      8. B(C   5,O   1)                  2.2387         0.020596 C 
      9. B(C   5,C   4)                  1.3261         0.763860   
     10. B(C   6,C   2)                  1.5050         0.430838   
     11. B(C   6,C   5)                  1.4864         0.422300   
     12. B(H   7,O   0)                  1.0001         0.496083   
     13. B(H   7,O   1)                  2.5916         0.002443   
     14. B(H   8,O   0)                  2.6236         0.001425   
     15. B(H   8,C   2)                  1.1020         0.355590   
     16. B(H   8,H   7)                  3.0498         0.000046   
     17. B(H   9,O   0)                  2.6811         0.001148   
     18. B(H   9,C   3)                  1.0987         0.357897   
     19. B(H   9,H   7)                  3.0401         0.000047   
     20. B(H  10,C   4)                  1.0889         0.361669   
     21. B(H  11,C   5)                  1.0965         0.352214   
     22. B(H  12,C   6)                  1.1035         0.343155   
     23. B(H  13,C   6)                  1.1019         0.345008   
     24. A(O   1,O   0,C   3)           27.5672         0.123109   
     25. A(C   2,O   0,H   7)           92.2637         0.166112   
     26. A(C   3,O   0,H   7)           90.5409         0.163608   
     27. A(O   1,O   0,C   2)           27.4657         0.124254   
     28. A(C   2,O   0,C   3)           28.0665         0.114241   
     29. A(O   1,O   0,H   7)           67.5872         0.193205   
     30. A(O   0,O   1,C   2)           85.8385         0.212375   
     31. A(C   2,O   1,C   3)           63.1945         0.401942   
     32. A(O   0,O   1,C   3)           87.1103         0.209838   
     33. A(O   1,C   2,C   3)           59.0578         0.396644   
     34. A(O   0,C   2,C   6)          159.8689         0.176376   
     35. A(C   6,C   2,H   8)          127.5510         0.331346   
     36. A(O   1,C   2,H   8)          119.9743         0.342226   
     37. A(O   1,C   2,C   6)           98.5180         0.394785   
     38. A(O   0,C   2,O   1)           66.6958         0.180299   
     39. A(C   3,C   2,C   6)          107.5391         0.383426   
     40. A(O   0,C   2,H   8)           57.6125         0.161358   
     41. A(O   0,C   2,C   3)           77.3458         0.176908   
     42. A(C   3,C   2,H   8)          122.1000         0.332820   
     43. A(O   0,C   3,C   2)           74.5877         0.174053   
     44. A(C   4,C   3,H   9)          129.2354         0.335431   
     45. A(O   0,C   3,H   9)           58.8015         0.159111   
     46. A(O   1,C   3,C   4)           97.1795         0.393100   
     47. A(C   2,C   3,C   4)          106.9321         0.387952   
     48. A(O   0,C   3,C   4)          158.9035         0.174838   
     49. A(O   0,C   3,O   1)           65.3225         0.175517   
     50. A(O   1,C   3,C   2)           57.7477         0.390318   
     51. A(O   1,C   3,H   9)          119.2227         0.337382   
     52. A(C   2,C   3,H   9)          121.8793         0.333177   
     53. A(C   5,C   4,H  10)          127.0185         0.365944   
     54. A(C   3,C   4,C   5)          104.3936         0.427266   
     55. A(C   3,C   4,H  10)          126.0433         0.336017   
     56. A(C   4,C   5,C   6)          114.8920         0.420640   
     57. A(C   4,C   5,H  11)          123.0595         0.364289   
     58. A(C   6,C   5,H  11)          120.3573         0.329730   
     59. A(C   2,C   6,C   5)           99.2430         0.380324   
     60. A(C   2,C   6,H  12)          115.2935         0.329402   
     61. A(C   5,C   6,H  12)          110.0318         0.328315   
     62. A(C   2,C   6,H  13)          110.3896         0.329695   
     63. A(C   5,C   6,H  13)          113.3146         0.328607   
     64. A(H  12,C   6,H  13)          108.4750         0.286724   
     65. D(C   2,O   1,O   0,H   7)    152.3838         0.001507   
     66. D(C   2,O   1,O   0,C   3)    -63.3167         0.001507   
     67. D(C   3,O   1,O   0,H   7)   -144.2995         0.001507   
     68. D(C   3,O   1,O   0,C   2)     63.3167         0.001507   
     69. D(C   3,C   2,O   1,O   0)     88.8614         0.030838   
     70. D(H   8,C   2,O   1,O   0)    -22.8220         0.030838   
     71. D(C   6,C   2,O   1,C   3)    105.3962         0.030838   
     72. D(C   3,C   2,O   0,H   7)    -86.9013         0.001500   
     73. D(O   1,C   2,O   0,H   7)    -25.3956         0.001500   
     74. D(H   8,C   2,O   0,O   1)    156.5540         0.001500   
     75. D(C   6,C   2,O   1,O   0)   -165.7423         0.030838   
     76. D(C   6,C   2,O   0,C   3)    106.5532         0.001500   
     77. D(H   8,C   2,O   0,H   7)    131.1585         0.001500   
     78. D(O   0,C   2,O   1,C   3)    -88.8614         0.030838   
     79. D(C   3,C   2,O   0,O   1)    -61.5057         0.001500   
     80. D(H   8,C   2,O   0,C   3)   -141.9403         0.001500   
     81. D(H   8,C   2,O   1,C   3)   -111.6834         0.030838   
     82. D(O   1,C   2,O   0,C   3)     61.5057         0.001500   
     83. D(C   6,C   2,O   0,O   1)     45.0475         0.001500   
     84. D(C   6,C   2,O   0,H   7)     19.6519         0.001500   
     85. D(C   2,C   3,O   1,O   0)    -86.7953         0.025390   
     86. D(C   2,C   3,O   0,O   1)     61.1496         0.001500   
     87. D(O   0,C   3,C   2,O   1)    -70.2363         0.017367   
     88. D(O   0,C   3,C   2,C   6)   -159.7577         0.017367   
     89. D(O   0,C   3,C   2,H   8)     37.9181         0.017367   
     90. D(C   4,C   3,O   0,H   7)     -3.3676         0.001500   
     91. D(O   1,C   3,C   2,C   6)    -89.5215         0.017367   
     92. D(C   4,C   3,O   1,C   2)   -105.5220         0.025390   
     93. D(C   4,C   3,O   0,C   2)    -97.1663         0.001500   
     94. D(C   2,C   3,O   0,H   7)     93.7986         0.001500   
     95. D(H   9,C   3,O   0,H   7)   -122.3583         0.001500   
     96. D(H   9,C   3,C   2,C   6)    163.7782         0.017367   
     97. D(H   9,C   3,O   0,O   1)   -155.0074         0.001500   
     98. D(H   9,C   3,O   0,C   2)    143.8430         0.001500   
     99. D(C   4,C   3,C   2,H   8)   -164.0019         0.017367   
    100. D(H   9,C   3,O   1,C   2)    111.2580         0.025390   
    101. D(H   9,C   3,O   1,O   0)     24.4627         0.025390   
    102. D(C   4,C   3,C   2,O   1)     87.8438         0.017367   
    103. D(C   4,C   3,C   2,C   6)     -1.6777         0.017367   
    104. D(O   1,C   3,O   0,H   7)     32.6491         0.001500   
    105. D(C   4,C   3,C   2,O   0)    158.0800         0.017367   
    106. D(O   1,C   3,C   2,H   8)    108.1543         0.017367   
    107. D(O   0,C   3,O   1,C   2)     86.7953         0.025390   
    108. D(H   9,C   3,C   2,H   8)      1.4540         0.017367   
    109. D(H   9,C   3,C   2,O   0)    -36.4640         0.017367   
    110. D(C   4,C   3,O   1,O   0)    167.6827         0.025390   
    111. D(O   1,C   3,O   0,C   2)    -61.1496         0.001500   
    112. D(H   9,C   3,C   2,O   1)   -106.7003         0.017367   
    113. D(O   1,C   3,C   2,O   0)     70.2363         0.017367   
    114. D(C   4,C   3,O   0,O   1)    -36.0167         0.001500   
    115. D(C   5,C   4,C   3,O   1)     43.8775         0.016779   
    116. D(C   5,C   4,C   3,C   2)    -14.5290         0.016779   
    117. D(C   5,C   4,C   3,H   9)   -178.5483         0.016779   
    118. D(C   5,C   4,C   3,O   0)     76.4619         0.016779   
    119. D(H  10,C   4,C   3,O   1)   -118.9651         0.016779   
    120. D(H  10,C   4,C   3,C   2)   -177.3715         0.016779   
    121. D(H  10,C   4,C   3,H   9)     18.6092         0.016779   
    122. D(H  10,C   4,C   3,O   0)    -86.3807         0.016779   
    123. D(C   6,C   5,C   4,C   3)     26.9364         0.045459   
    124. D(C   6,C   5,C   4,H  10)   -170.4456         0.045459   
    125. D(H  11,C   5,C   4,C   3)   -167.8710         0.045459   
    126. D(H  11,C   5,C   4,H  10)     -5.2530         0.045459   
    127. D(C   5,C   6,C   2,O   1)    -44.9805         0.015588   
    128. D(C   5,C   6,C   2,C   3)     15.1569         0.015588   
    129. D(H  13,C   6,C   5,C   4)   -144.2434         0.014107   
    130. D(C   5,C   6,C   2,O   0)    -86.0677         0.015588   
    131. D(H  12,C   6,C   2,O   1)   -162.4160         0.015588   
    132. D(C   2,C   6,C   5,C   4)    -27.2103         0.014107   
    133. D(H  12,C   6,C   2,H   8)     58.7904         0.015588   
    134. D(H  12,C   6,C   2,O   0)    156.4968         0.015588   
    135. D(H  13,C   6,C   2,O   1)     74.2468         0.015588   
    136. D(H  13,C   6,C   2,C   3)    134.3843         0.015588   
    137. D(H  13,C   6,C   2,H   8)    -64.5468         0.015588   
    138. D(H  12,C   6,C   2,C   3)   -102.2786         0.015588   
    139. D(H  13,C   6,C   2,O   0)     33.1597         0.015588   
    140. D(C   2,C   6,C   5,H  11)    167.1624         0.014107   
    141. D(H  12,C   6,C   5,C   4)     94.1275         0.014107   
    142. D(C   5,C   6,C   2,H   8)    176.2258         0.015588   
    143. D(H  12,C   6,C   5,H  11)    -71.4997         0.014107   
    144. D(H  13,C   6,C   5,H  11)     50.1293         0.014107   
    -----------------------------------------------------------------

Number of atoms                         .... 14
Number of degrees of freedom            .... 144

         *************************************************************
         *                GEOMETRY OPTIMIZATION CYCLE   1            *
         *************************************************************
---------------------------------
CARTESIAN COORDINATES (ANGSTROEM)
---------------------------------
  O     -2.618067    0.763562    1.868863
  O     -0.346371   -0.471065    0.787851
  C     -0.729094    0.122415   -0.429482
  C      0.152894    0.840150    0.526026
  C      1.550100    0.446325    0.205186
  C      1.421563   -0.616210   -0.577863
  C      0.154344   -0.672787   -1.352621
  H     -2.367556   -0.070944    2.359856
  H     -1.778432    0.417014   -0.592474
  H     -0.210258    1.682912    1.130144
  H      2.443759    0.760882    0.741966
  H      2.260971   -1.271219   -0.839852
  H      0.304077   -0.235515   -2.354615
  H     -0.237930   -1.695419   -1.472986

----------------------------
CARTESIAN COORDINATES (A.U.)
----------------------------
  NO LB      ZA    FRAG     MASS         X           Y           Z
   0 O     8.0000    0    15.999   -4.947429    1.442923    3.531640
   1 O     8.0000    0    15.999   -0.654547   -0.890183    1.488823
   2 C     6.0000    0    12.011   -1.377787    0.231330   -0.811603
   3 C     6.0000    0    12.011    0.288929    1.587653    0.994044
   4 C     6.0000    0    12.011    2.929265    0.843432    0.387745
   5 C     6.0000    0    12.011    2.686366   -1.164469   -1.092002
   6 C     6.0000    0    12.011    0.291668   -1.271384   -2.556084
   7 H     1.0000    0     1.008   -4.474033   -0.134064    4.459482
   8 H     1.0000    0     1.008   -3.360750    0.788042   -1.119614
   9 H     1.0000    0     1.008   -0.397330    3.180243    2.135663
  10 H     1.0000    0     1.008    4.618035    1.437858    1.402113
  11 H     1.0000    0     1.008    4.272615   -2.402256   -1.587089
  12 H     1.0000    0     1.008    0.574622   -0.445058   -4.449577
  13 H     1.0000    0     1.008   -0.449623   -3.203878   -2.783541

--------------------------------
INTERNAL COORDINATES (ANGSTROEM)
--------------------------------
 O      0   0   0     0.000000000000     0.00000000     0.00000000
 O      1   0   0     2.502715432823     0.00000000     0.00000000
 C      2   1   0     1.398428106410    91.79823113     0.00000000
 C      2   1   3     1.423416488435    93.06859123    63.49728732
 C      4   2   1     1.472834728658   100.99986881   165.55908789
 C      5   4   2     1.335296938873   102.87063465    44.89111326
 C      3   2   1     1.491179058699   102.71989534   196.84904346
 H      1   2   3     0.972794105180    73.80950802   152.24586572
 H      3   2   1     1.093431057298   117.13122938   338.31200244
 H      4   2   1     1.091670413350   116.42911839    23.32208685
 H      5   4   2     1.088816291578   126.74286333   242.14577978
 H      6   5   4     1.096027628728   122.35918859   192.22210365
 H      7   3   2     1.103120294419   115.82676231   196.40883842
 H      7   3   2     1.101654112495   110.71933779    72.81859053

---------------------------
INTERNAL COORDINATES (A.U.)
---------------------------
 O      0   0   0     0.000000000000     0.00000000     0.00000000
 O      1   0   0     4.729446759174     0.00000000     0.00000000
 C      2   1   0     2.642646139094    91.79823113     0.00000000
 C      2   1   3     2.689867337650    93.06859123    63.49728732
 C      4   2   1     2.783254277692   100.99986881   165.55908789
 C      5   4   2     2.523345521932   102.87063465    44.89111326
 C      3   2   1     2.817920037580   102.71989534   196.84904346
 H      1   2   3     1.838314443483    73.80950802   152.24586572
 H      3   2   1     2.066285244616   117.13122938   338.31200244
 H      4   2   1     2.062958109736   116.42911839    23.32208685
 H      5   4   2     2.057564601234   126.74286333   242.14577978
 H      6   5   4     2.071192053507   122.35918859   192.22210365
 H      7   3   2     2.084595249222   115.82676231   196.40883842
 H      7   3   2     2.081824566923   110.71933779    72.81859053

---------------------
BASIS SET INFORMATION
---------------------
There are 3 groups of distinct atoms

 Group   1 Type O   : 7s4p1d contracted to 3s2p1d pattern {511/31/1}
 Group   2 Type C   : 7s4p1d contracted to 3s2p1d pattern {511/31/1}
 Group   3 Type H   : 4s1p contracted to 2s1p pattern {31/1}

Atom   0O    basis set group =>   1
Atom   1O    basis set group =>   1
Atom   2C    basis set group =>   2
Atom   3C    basis set group =>   2
Atom   4C    basis set group =>   2
Atom   5C    basis set group =>   2
Atom   6C    basis set group =>   2
Atom   7H    basis set group =>   3
Atom   8H    basis set group =>   3
Atom   9H    basis set group =>   3
Atom  10H    basis set group =>   3
Atom  11H    basis set group =>   3
Atom  12H    basis set group =>   3
Atom  13H    basis set group =>   3
---------------------------------
AUXILIARY/J BASIS SET INFORMATION
---------------------------------
There are 3 groups of distinct atoms

 Group   1 Type O   : 12s5p4d2f1g contracted to 6s4p3d1f1g pattern {711111/2111/211/2/1}
 Group   2 Type C   : 12s5p4d2f1g contracted to 6s4p3d1f1g pattern {711111/2111/211/2/1}
 Group   3 Type H   : 5s2p1d contracted to 3s1p1d pattern {311/2/1}

Atom   0O    basis set group =>   1
Atom   1O    basis set group =>   1
Atom   2C    basis set group =>   2
Atom   3C    basis set group =>   2
Atom   4C    basis set group =>   2
Atom   5C    basis set group =>   2
Atom   6C    basis set group =>   2
Atom   7H    basis set group =>   3
Atom   8H    basis set group =>   3
Atom   9H    basis set group =>   3
Atom  10H    basis set group =>   3
Atom  11H    basis set group =>   3
Atom  12H    basis set group =>   3
Atom  13H    basis set group =>   3


           ************************************************************
           *        Program running with 8 parallel MPI-processes     *
           *              working on a common directory               *
           ************************************************************
------------------------------------------------------------------------------
                           ORCA GTO INTEGRAL CALCULATION
                           -- RI-GTO INTEGRALS CHOSEN --
------------------------------------------------------------------------------
------------------------------------------------------------------------------
                   ___                                                        
                  /   \      - P O W E R E D   B Y -                         
                 /     \                                                     
                 |  |  |   _    _      __       _____    __    __             
                 |  |  |  | |  | |    /  \     |  _  \  |  |  /  |          
                  \  \/   | |  | |   /    \    | | | |  |  | /  /          
                 / \  \   | |__| |  /  /\  \   | |_| |  |  |/  /          
                |  |  |   |  __  | /  /__\  \  |    /   |      \           
                |  |  |   | |  | | |   __   |  |    \   |  |\   \          
                \     /   | |  | | |  |  |  |  | |\  \  |  | \   \       
                 \___/    |_|  |_| |__|  |__|  |_| \__\ |__|  \__/        
                                                                              
                      - O R C A' S   B I G   F R I E N D -                    
                                      &                                       
                       - I N T E G R A L  F E E D E R -                       
                                                                              
 v1 FN, 2020, v2 2021                                                         
------------------------------------------------------------------------------


Reading SHARK input file path_opt7_orca.SHARKINP.tmp ... ok
----------------------
SHARK INTEGRAL PACKAGE
----------------------

Number of atoms                             ...     14
Number of basis functions                   ...    133
Number of shells                            ...     63
Maximum angular momentum                    ...      2
Integral batch strategy                     ... SHARK/LIBINT Hybrid
RI-J (if used) integral strategy            ... SPLIT-RIJ (Revised 2003 algorithm where possible)
Printlevel                                  ...      1
Contraction scheme used                     ... SEGMENTED contraction
Coulomb Range Separation                    ... NOT USED
Exchange Range Separation                   ... NOT USED
Finite Nucleus Model                        ... NOT USED
Auxiliary Coulomb fitting basis             ... AVAILABLE
   # of basis functions in Aux-J            ...    420
   # of shells in Aux-J                     ...    140
   Maximum angular momentum in Aux-J        ...      4
Auxiliary J/K fitting basis                 ... NOT available
Auxiliary Correlation fitting basis         ... NOT available
Auxiliary 'external' fitting basis          ... NOT available
Integral threshold                          ...     2.500000e-11
Primitive cut-off                           ...     2.500000e-12
Primitive pair pre-selection threshold      ...     2.500000e-12

Calculating pre-screening integrals         ... done (  0.0 sec) Dimension = 63
Organizing shell pair data                  ... done (  0.0 sec)
Shell pair information
Total number of shell pairs                 ...      2016
Shell pairs after pre-screening             ...      1928
Total number of primitive shell pairs       ...      7252
Primitive shell pairs kept                  ...      5290
          la=0 lb=0:    599 shell pairs
          la=1 lb=0:    711 shell pairs
          la=1 lb=1:    222 shell pairs
          la=2 lb=0:    233 shell pairs
          la=2 lb=1:    138 shell pairs
          la=2 lb=2:     25 shell pairs

Calculating one electron integrals          ... done (  0.0 sec)
Calculating RI/J V-Matrix + Cholesky decomp.... done (  0.0 sec)
Calculating Nuclear repulsion               ... done (  0.0 sec) ENN=    296.994999123437 Eh

SHARK setup successfully completed in   0.1 seconds

Maximum memory used throughout the entire GTOINT-calculation: 10.7 MB


           ************************************************************
           *        Program running with 8 parallel MPI-processes     *
           *              working on a common directory               *
           ************************************************************
-------------------------------------------------------------------------------
                                 ORCA SCF
-------------------------------------------------------------------------------

------------
SCF SETTINGS
------------
Hamiltonian:
 Density Functional     Method          .... DFT(GTOs)
 Exchange Functional    Exchange        .... PBE
   PBE kappa parameter   XKappa         ....  0.804000
   PBE mue parameter    XMuePBE         ....  0.219520
 Correlation Functional Correlation     .... PBE
   PBE beta parameter  CBetaPBE         ....  0.066725
 LDA part of GGA corr.  LDAOpt          .... PW91-LDA
 Gradients option       PostSCFGGA      .... off
 Hybrid DFT is turned on
   Fraction HF Exchange ScalHFX         ....  0.250000
   Scaling of DF-GGA-X  ScalDFX         ....  0.750000
   Scaling of DF-GGA-C  ScalDFC         ....  1.000000
   Scaling of DF-LDA-C  ScalLDAC        ....  1.000000
   Perturbative correction              ....  0.000000
   Density functional embedding theory  .... OFF
   NL short-range parameter             ....  6.900000
 RI-approximation to the Coulomb term is turned on
   Number of AuxJ basis functions       .... 420
   RIJ-COSX (HFX calculated with COS-X)).... on


General Settings:
 Integral files         IntName         .... path_opt7_orca
 Hartree-Fock type      HFTyp           .... UHF
 Total Charge           Charge          ....    0
 Multiplicity           Mult            ....    2
 Number of Electrons    NEL             ....   53
 Basis Dimension        Dim             ....  133
 Nuclear Repulsion      ENuc            ....    296.9949991234 Eh

Convergence Acceleration:
 DIIS                   CNVDIIS         .... on
   Start iteration      DIISMaxIt       ....    12
   Startup error        DIISStart       ....  0.200000
   # of expansion vecs  DIISMaxEq       ....     5
   Bias factor          DIISBfac        ....   1.050
   Max. coefficient     DIISMaxC        ....  10.000
 Trust-Rad. Augm. Hess. CNVTRAH         .... auto
   Auto Start mean grad. ratio tolernc. ....  1.125000
   Auto Start start iteration           ....    20
   Auto Start num. interpolation iter.  ....    10
   Max. Number of Micro iterations      ....    16
   Max. Number of Macro iterations      .... Maxiter - #DIIS iter
   Number of Davidson start vectors     ....     2
   Converg. threshold I  (grad. norm)   ....   1.000e-05
   Converg. threshold II (energy diff.) ....   1.000e-08
   Grad. Scal. Fac. for Micro threshold ....   0.100
   Minimum threshold for Micro iter.    ....   0.010
   NR start threshold (gradient norm)   ....   0.001
   Initial trust radius                 ....   0.400
   Minimum AH scaling param. (alpha)    ....   1.000
   Maximum AH scaling param. (alpha)    .... 1000.000
   Orbital update algorithm             .... Taylor
   White noise on init. David. guess    .... on
   Maximum white noise                  ....   0.010
   Quad. conv. algorithm                .... NR
 SOSCF                  CNVSOSCF        .... off
 Level Shifting         CNVShift        .... on
   Level shift para.    LevelShift      ....    0.2500
   Turn off err/grad.   ShiftErr        ....    0.0010
 Zerner damping         CNVZerner       .... off
 Static damping         CNVDamp         .... on
   Fraction old density DampFac         ....    0.7000
   Max. Damping (<1)    DampMax         ....    0.9800
   Min. Damping (>=0)   DampMin         ....    0.0000
   Turn off err/grad.   DampErr         ....    0.1000
 Fernandez-Rico         CNVRico         .... off

SCF Procedure:
 Maximum # iterations   MaxIter         ....   250
 SCF integral mode      SCFMode         .... Direct
   Integral package                     .... SHARK and LIBINT hybrid scheme
 Reset frequency        DirectResetFreq ....    20
 Integral Threshold     Thresh          ....  2.500e-11 Eh
 Primitive CutOff       TCut            ....  2.500e-12 Eh

Convergence Tolerance:
 Convergence Check Mode ConvCheckMode   .... Total+1el-Energy
 Convergence forced     ConvForced      .... 0
 Energy Change          TolE            ....  1.000e-08 Eh
 1-El. energy change                    ....  1.000e-05 Eh
 DIIS Error             TolErr          ....  5.000e-07


Diagonalization of the overlap matrix:
Smallest eigenvalue                        ... 7.065e-04
Time for diagonalization                   ...    0.003 sec
Threshold for overlap eigenvalues          ... 1.000e-08
Number of eigenvalues below threshold      ... 0
Time for construction of square roots      ...    0.001 sec
Total time needed                          ...    0.004 sec

Time for model grid setup =    0.043 sec

------------------------------
INITIAL GUESS: MODEL POTENTIAL
------------------------------
Loading Hartree-Fock densities                     ... done
Calculating cut-offs                               ... done
Initializing the effective Hamiltonian             ... done
Setting up the integral package (SHARK)            ... done
Starting the Coulomb interaction                   ... done (   0.0 sec)
Reading the grid                                   ... done
Mapping shells                                     ... done
Starting the XC term evaluation                    ... done (   0.0 sec)
  promolecular density results
     # of electrons  =     52.997246812
     EX              =    -43.890266805
     EC              =     -1.755231788
     EX+EC           =    -45.645498593
Transforming the Hamiltonian                       ... done (   0.0 sec)
Diagonalizing the Hamiltonian                      ... done (   0.0 sec)
Back transforming the eigenvectors                 ... done (   0.0 sec)
Now organizing SCF variables                       ... done
                      ------------------
                      INITIAL GUESS DONE (   0.1 sec)
                      ------------------
-------------------
DFT GRID GENERATION
-------------------

General Integration Accuracy     IntAcc      ... 4.388
Radial Grid Type                 RadialGrid  ... OptM3 with GC (2021)
Angular Grid (max. ang.)         AngularGrid ... 4 (Lebedev-302)
Angular grid pruning method      GridPruning ... 4 (adaptive)
Weight generation scheme         WeightScheme... Becke
Basis function cutoff            BFCut       ... 1.0000e-11
Integration weight cutoff        WCut        ... 1.0000e-14
Angular grids for H and He will be reduced by one unit
Partially contracted basis set               ... off
Rotationally invariant grid construction     ... off

Total number of grid points                  ...    64884
Total number of batches                      ...     1022
Average number of points per batch           ...       63
Average number of grid points per atom       ...     4635
Time for grid setup =    0.243 sec

--------------------
COSX GRID GENERATION
--------------------

GRIDX 1
-------
General Integration Accuracy     IntAcc      ... 3.816
Radial Grid Type                 RadialGrid  ... OptM3 with GC (2021)
Angular Grid (max. ang.)         AngularGrid ... 1 (Lebedev-50)
Angular grid pruning method      GridPruning ... 4 (adaptive)
Weight generation scheme         WeightScheme... Becke
Basis function cutoff            BFCut       ... 1.0000e-11
Integration weight cutoff        WCut        ... 1.0000e-14
Angular grids for H and He will be reduced by one unit
Partially contracted basis set               ... on
Rotationally invariant grid construction     ... off

Total number of grid points                  ...     8302
Total number of batches                      ...      137
Average number of points per batch           ...       60
Average number of grid points per atom       ...      593
UseSFitting                                  ... on

GRIDX 2
-------
General Integration Accuracy     IntAcc      ... 4.020
Radial Grid Type                 RadialGrid  ... OptM3 with GC (2021)
Angular Grid (max. ang.)         AngularGrid ... 2 (Lebedev-110)
Angular grid pruning method      GridPruning ... 4 (adaptive)
Weight generation scheme         WeightScheme... Becke
Basis function cutoff            BFCut       ... 1.0000e-11
Integration weight cutoff        WCut        ... 1.0000e-14
Angular grids for H and He will be reduced by one unit
Partially contracted basis set               ... on
Rotationally invariant grid construction     ... off

Total number of grid points                  ...    18046
Total number of batches                      ...      290
Average number of points per batch           ...       62
Average number of grid points per atom       ...     1289
UseSFitting                                  ... on

GRIDX 3
-------
General Integration Accuracy     IntAcc      ... 4.338
Radial Grid Type                 RadialGrid  ... OptM3 with GC (2021)
Angular Grid (max. ang.)         AngularGrid ... 3 (Lebedev-194)
Angular grid pruning method      GridPruning ... 4 (adaptive)
Weight generation scheme         WeightScheme... Becke
Basis function cutoff            BFCut       ... 1.0000e-11
Integration weight cutoff        WCut        ... 1.0000e-14
Angular grids for H and He will be reduced by one unit
Partially contracted basis set               ... on
Rotationally invariant grid construction     ... off

Total number of grid points                  ...    39677
Total number of batches                      ...      627
Average number of points per batch           ...       63
Average number of grid points per atom       ...     2834
UseSFitting                                  ... on

Time for X-Grid setup             =    0.179 sec

--------------
SCF ITERATIONS
--------------
ITER       Energy         Delta-E        Max-DP      RMS-DP      [F,P]     Damp
               ***  Starting incremental Fock matrix formation  ***
  0   -343.9524458226   0.000000000000 0.13032993  0.00364509  0.2173604 0.7000
  1   -344.0298289304  -0.077383107748 0.02967070  0.00124591  0.0410287 0.7000
                               ***Turning on DIIS***
  2   -344.1253993352  -0.095570404871 0.04561062  0.00277691  0.0226290 0.0000
  3   -344.2312279770  -0.105828641733 0.02810350  0.00083581  0.0628462 0.0000
  4   -344.2840691040  -0.052841127050 0.03099755  0.00062687  0.0404350 0.0000
  5   -344.3107996668  -0.026730562760 0.02247366  0.00050406  0.0235710 0.0000
  6   -344.3245699740  -0.013770307235 0.01961325  0.00055531  0.0168314 0.0000
  7   -344.3333720077  -0.008802033629 0.01439087  0.00055276  0.0105166 0.0000
  8   -344.3377969958  -0.004424988184 0.01066444  0.00030969  0.0116100 0.0000
  9   -344.3405745652  -0.002777569392 0.00689490  0.00024309  0.0070292 0.0000
 10   -344.3420241715  -0.001449606312 0.00696305  0.00018421  0.0063760 0.0000
 11   -344.3429941445  -0.000969972941 0.00463516  0.00013167  0.0035901 0.0000
 12   -344.3434920384  -0.000497893897 0.00385181  0.00010728  0.0029208 0.0000
 13   -344.3437392219  -0.000247183535 0.00315437  0.00007806  0.0022396 0.0000
 14   -344.3439011379  -0.000161916021 0.00222809  0.00005438  0.0015623 0.0000
 15   -344.3439815823  -0.000080444395 0.00166682  0.00004219  0.0013568 0.0000
 16   -344.3440264087  -0.000044826375 0.00336181  0.00008083  0.0007449 0.0000
               *** Restarting incremental Fock matrix formation ***
                                   *** Resetting DIIS ***
 17   -344.3440439799  -0.000017571196 0.00043796  0.00001357  0.0002917 0.0000
 18   -344.3440440578  -0.000000077866 0.00023963  0.00000703  0.0003887 0.0000
 19   -344.3440452716  -0.000001213791 0.00023846  0.00000405  0.0001145 0.0000
 20   -344.3440455890  -0.000000317398 0.00029845  0.00000370  0.0000975 0.0000
 21   -344.3440458779  -0.000000288942 0.00037604  0.00000445  0.0001047 0.0000
 22   -344.3440462013  -0.000000323394 0.00023842  0.00000281  0.0001091 0.0000
 23   -344.3440464011  -0.000000199837 0.00048074  0.00000548  0.0001096 0.0000
 24   -344.3440467818  -0.000000380697 0.00093204  0.00001062  0.0001088 0.0000
 25   -344.3440474932  -0.000000711355 0.00191247  0.00002168  0.0001053 0.0000

 WARNING: the maximum gradient error descreased on average only by a factor   1.1
          during the last 20 iterations

                      *** Initiating the TRAH-SCF procedure ***


TRAH GRIDX
----------

General Integration Accuracy     IntAcc      ... 3.067
Radial Grid Type                 RadialGrid  ... OptM3 with GC (2021)
Angular Grid (max. ang.)         AngularGrid ... 1 (Lebedev-50)
Angular grid pruning method      GridPruning ... 4 (adaptive)
Weight generation scheme         WeightScheme... Becke
Basis function cutoff            BFCut       ... 1.0000e-11
Integration weight cutoff        WCut        ... 1.0000e-14
Angular grids for H and He will be reduced by one unit
Partially contracted basis set               ... on
Rotationally invariant grid construction     ... off

Total number of grid points                  ...     4354
Total number of batches                      ...       78
Average number of points per batch           ...       55
Average number of grid points per atom       ...      311


TRAH GRID
---------

General Integration Accuracy     IntAcc      ... 3.467
Radial Grid Type                 RadialGrid  ... OptM3 with GC (2021)
Angular Grid (max. ang.)         AngularGrid ... 1 (Lebedev-50)
Angular grid pruning method      GridPruning ... 4 (adaptive)
Weight generation scheme         WeightScheme... Becke
Basis function cutoff            BFCut       ... 1.0000e-11
Integration weight cutoff        WCut        ... 1.0000e-14
Angular grids for H and He will be reduced by one unit
Partially contracted basis set               ... off
Rotationally invariant grid construction     ... off

Total number of grid points                  ...     9444
Total number of batches                      ...      152
Average number of points per batch           ...       62
Average number of grid points per atom       ...      675

 --------------------------------------------------------------------------------------------
   Iter.        energy            ||Error||_2        Shift      TRadius  Mac/Mic        Rej.
 --------------------------------------------------------------------------------------------
    0       -344.344048830234     1.574147e-04                     0.400 (TRAH MAcro)   No
    0     dE    -2.203546e-08     2.961688e-04    -2.2036e-08      0.000 (TRAH MIcro)
    0     dE    -3.920258e-06     1.024173e-03    -3.9163e-06      0.032 (TRAH MIcro)
    0     dE    -4.732627e-06     8.306488e-04    -4.7256e-06      0.039 (TRAH MIcro)
    0     dE    -5.559900e-06     6.321285e-04    -5.5484e-06      0.046 (TRAH MIcro)
    0     dE    -5.753983e-06     2.737959e-04    -5.7412e-06      0.047 (TRAH MIcro)
    0     dE    -5.785157e-06     1.132253e-04    -5.7721e-06      0.048 (TRAH MIcro)
    0     dE    -5.800091e-06     1.052368e-04    -5.7870e-06      0.048 (TRAH MIcro)
    0     dE    -5.805752e-06     8.788443e-05    -5.7926e-06      0.048 (TRAH MIcro)
    0     dE    -5.809859e-06     2.571204e-05    -5.7967e-06      0.048 (TRAH MIcro)
    0     dE    -5.810122e-06     1.297784e-05    -5.7969e-06      0.048 (TRAH MIcro)
    0     dE    -5.810160e-06     5.195025e-06    -5.7970e-06      0.048 (TRAH MIcro)
    0     dE    -5.810169e-06     4.684443e-06    -5.7970e-06      0.048 (TRAH MIcro)
    0     dE    -5.810181e-06     6.841644e-06    -5.7970e-06      0.048 (TRAH MIcro)
    0     dE    -5.810187e-06     7.903046e-06    -5.7970e-06      0.048 (TRAH MIcro)
    1       -344.344053499190     2.879003e-04                           (NR   MAcro)
    1     dE    -3.951123e-08     9.930805e-05                           (NR   MIcro)
    1     dE    -4.786384e-08     8.301206e-05                           (NR   MIcro)
    1     dE    -8.594763e-08     2.372846e-04                           (NR   MIcro)
    1     dE    -1.759809e-07     2.751533e-04                           (NR   MIcro)
    1     dE    -2.644030e-07     1.978875e-04                           (NR   MIcro)
    1     dE    -2.919030e-07     1.127247e-04                           (NR   MIcro)
    1     dE    -3.011696e-07     5.021615e-05                           (NR   MIcro)
    1     dE    -3.030759e-07     1.813629e-05                           (NR   MIcro)
    1     dE    -3.032921e-07     8.661890e-06                           (NR   MIcro)
    1     dE    -3.033550e-07     3.588090e-06                           (NR   MIcro)
    1     dE    -3.033610e-07     1.792535e-06                           (NR   MIcro)
    1     dE    -3.033621e-07     1.221346e-06                           (NR   MIcro)
    1     dE    -3.033626e-07     9.408294e-07                           (NR   MIcro)
    2       -344.344053726498     2.066263e-05                           (NR   MAcro)
    2     dE    -4.261737e-10     9.596060e-06                           (NR   MIcro)
    2     dE    -8.153826e-10     2.413160e-05                           (NR   MIcro)
    2     dE    -1.758509e-09     3.430394e-05                           (NR   MIcro)
    2     dE    -3.588994e-09     3.484310e-05                           (NR   MIcro)
    2     dE    -4.579390e-09     2.057667e-05                           (NR   MIcro)
    2     dE    -4.779387e-09     7.400537e-06                           (NR   MIcro)
    2     dE    -4.807068e-09     3.051907e-06                           (NR   MIcro)
    2     dE    -4.815281e-09     1.381176e-06                           (NR   MIcro)
    2     dE    -4.816674e-09     6.754228e-07                           (NR   MIcro)
    3       -344.344053735711     2.454551e-06                           (NR   MAcro)

               *****************************************************
               *                     SUCCESS                       *
               *           SCF CONVERGED AFTER  66 CYCLES          *
               *****************************************************

Old exchange energy                            =    -11.195924603 Eh
New exchange energy                            =    -11.195900223 Eh
Exchange energy change after final integration =      0.000024380 Eh
Total energy after final integration           =   -344.344029356 Eh
Final COS-X integration done in                =     0.668 sec

----------------
TOTAL SCF ENERGY
----------------

Total Energy       :         -344.34402936 Eh           -9370.07740 eV

Components:
Nuclear Repulsion  :          296.99499912 Eh            8081.64479 eV
Electronic Energy  :         -641.33902848 Eh          -17451.72219 eV
One Electron Energy:        -1057.19750870 Eh          -28767.80674 eV
Two Electron Energy:          415.85848022 Eh           11316.08455 eV
Max COSX asymmetry :            0.00000076 Eh               0.00002 eV

Virial components:
Potential Energy   :         -686.07385203 Eh          -18669.01863 eV
Kinetic Energy     :          341.72982268 Eh            9298.94122 eV
Virial Ratio       :            2.00764992


DFT components:
N(Alpha)           :       27.000002854853 electrons
N(Beta)            :       26.000006685996 electrons
N(Total)           :       53.000009540850 electrons
E(X)               :      -33.494856663856 Eh       
E(C)               :       -1.769325469155 Eh       
E(XC)              :      -35.264182133011 Eh       
DFET-embed. en.    :        0.000000000000 Eh       

---------------
SCF CONVERGENCE
---------------

  Last Energy change         ...   -9.2130e-09  Tolerance :   1.0000e-08
  Last Orbital Gradient      ...    2.4546e-06  Tolerance :   1.0000e-05
  Last Orbital Rotation      ...    1.2875e-03

             **** THE GBW FILE WAS UPDATED (path_opt7_orca.gbw) ****
             **** DENSITY path_opt7_orca.scfp WAS UPDATED ****
             **** ENERGY FILE WAS UPDATED (path_opt7_orca.en.tmp) ****
----------------------
UHF SPIN CONTAMINATION
----------------------

Warning: in a DFT calculation there is little theoretical justification to 
         calculate <S**2> as in Hartree-Fock theory. We will do it anyways
         but you should keep in mind that the values have only limited relevance

Expectation value of <S**2>     :     0.752316
Ideal value S*(S+1) for S=0.5   :     0.750000
Deviation                       :     0.002316

             **** THE GBW FILE WAS UPDATED (path_opt7_orca.gbw) ****
             **** DENSITY path_opt7_orca.scfp WAS UPDATED ****
----------------
ORBITAL ENERGIES
----------------
                 SPIN UP ORBITALS
  NO   OCC          E(Eh)            E(eV) 
   0   1.0000     -19.256976      -524.0090 
   1   1.0000     -19.217352      -522.9307 
   2   1.0000     -10.288305      -279.9590 
   3   1.0000     -10.287891      -279.9477 
   4   1.0000     -10.240167      -278.6491 
   5   1.0000     -10.233552      -278.4691 
   6   1.0000     -10.227470      -278.3036 
   7   1.0000      -1.123301       -30.5666 
   8   1.0000      -0.998843       -27.1799 
   9   1.0000      -0.833042       -22.6682 
  10   1.0000      -0.745839       -20.2953 
  11   1.0000      -0.677654       -18.4399 
  12   1.0000      -0.593081       -16.1385 
  13   1.0000      -0.564153       -15.3514 
  14   1.0000      -0.554312       -15.0836 
  15   1.0000      -0.467551       -12.7227 
  16   1.0000      -0.464994       -12.6531 
  17   1.0000      -0.463595       -12.6151 
  18   1.0000      -0.432452       -11.7676 
  19   1.0000      -0.413814       -11.2604 
  20   1.0000      -0.399773       -10.8784 
  21   1.0000      -0.393789       -10.7155 
  22   1.0000      -0.368175       -10.0186 
  23   1.0000      -0.332272        -9.0416 
  24   1.0000      -0.323453        -8.8016 
  25   1.0000      -0.302400        -8.2287 
  26   1.0000      -0.234206        -6.3731 
  27   0.0000       0.003211         0.0874 
  28   0.0000       0.071726         1.9518 
  29   0.0000       0.093071         2.5326 
  30   0.0000       0.110128         2.9967 
  31   0.0000       0.117949         3.2096 
  32   0.0000       0.130030         3.5383 
  33   0.0000       0.145094         3.9482 
  34   0.0000       0.147315         4.0086 
  35   0.0000       0.154181         4.1955 
  36   0.0000       0.166416         4.5284 
  37   0.0000       0.213626         5.8130 
  38   0.0000       0.226839         6.1726 
  39   0.0000       0.308745         8.4014 
  40   0.0000       0.319394         8.6911 
  41   0.0000       0.391829        10.6622 
  42   0.0000       0.405321        11.0293 
  43   0.0000       0.458707        12.4820 
  44   0.0000       0.478419        13.0184 
  45   0.0000       0.486812        13.2468 
  46   0.0000       0.505407        13.7528 
  47   0.0000       0.516885        14.0651 
  48   0.0000       0.531775        14.4703 
  49   0.0000       0.556068        15.1314 
  50   0.0000       0.574832        15.6420 
  51   0.0000       0.601410        16.3652 
  52   0.0000       0.613910        16.7053 
  53   0.0000       0.627385        17.0720 
  54   0.0000       0.640822        17.4376 
  55   0.0000       0.643078        17.4990 
  56   0.0000       0.675272        18.3751 
  57   0.0000       0.685873        18.6636 
  58   0.0000       0.688137        18.7252 
  59   0.0000       0.689941        18.7743 
  60   0.0000       0.710708        19.3394 
  61   0.0000       0.731621        19.9084 
  62   0.0000       0.765629        20.8338 
  63   0.0000       0.817736        22.2517 
  64   0.0000       0.856496        23.3064 
  65   0.0000       0.893178        24.3046 
  66   0.0000       0.918058        24.9816 
  67   0.0000       0.968654        26.3584 
  68   0.0000       0.984150        26.7801 
  69   0.0000       1.020726        27.7754 
  70   0.0000       1.046395        28.4739 
  71   0.0000       1.061271        28.8786 
  72   0.0000       1.085318        29.5330 
  73   0.0000       1.128659        30.7124 
  74   0.0000       1.197528        32.5864 
  75   0.0000       1.238195        33.6930 
  76   0.0000       1.312194        35.7066 
  77   0.0000       1.320564        35.9344 
  78   0.0000       1.362554        37.0770 
  79   0.0000       1.442155        39.2430 
  80   0.0000       1.448388        39.4126 
  81   0.0000       1.489757        40.5384 
  82   0.0000       1.544174        42.0191 
  83   0.0000       1.560308        42.4581 
  84   0.0000       1.613501        43.9056 
  85   0.0000       1.638843        44.5952 
  86   0.0000       1.668331        45.3976 
  87   0.0000       1.705328        46.4043 
  88   0.0000       1.710633        46.5487 
  89   0.0000       1.748843        47.5884 
  90   0.0000       1.764826        48.0234 
  91   0.0000       1.786982        48.6263 
  92   0.0000       1.821438        49.5639 
  93   0.0000       1.841323        50.1049 
  94   0.0000       1.865664        50.7673 
  95   0.0000       1.891078        51.4588 
  96   0.0000       1.960198        53.3397 
  97   0.0000       1.968066        53.5538 
  98   0.0000       2.000847        54.4458 
  99   0.0000       2.018714        54.9320 
 100   0.0000       2.025577        55.1187 
 101   0.0000       2.101624        57.1881 
 102   0.0000       2.132187        58.0198 
 103   0.0000       2.146452        58.4079 
 104   0.0000       2.174390        59.1682 
 105   0.0000       2.209124        60.1133 
 106   0.0000       2.249170        61.2030 
 107   0.0000       2.276070        61.9350 
 108   0.0000       2.296726        62.4971 
 109   0.0000       2.392494        65.1031 
 110   0.0000       2.434252        66.2394 
 111   0.0000       2.493805        67.8599 
 112   0.0000       2.524134        68.6852 
 113   0.0000       2.590463        70.4901 
 114   0.0000       2.611203        71.0545 
 115   0.0000       2.630205        71.5715 
 116   0.0000       2.667999        72.5999 
 117   0.0000       2.734368        74.4059 
 118   0.0000       2.758775        75.0701 
 119   0.0000       2.782699        75.7211 
 120   0.0000       2.835391        77.1549 
 121   0.0000       2.887457        78.5717 
 122   0.0000       2.891864        78.6916 
 123   0.0000       2.906266        79.0835 
 124   0.0000       2.941613        80.0454 
 125   0.0000       2.992246        81.4232 
 126   0.0000       3.062835        83.3440 
 127   0.0000       3.100039        84.3563 
 128   0.0000       3.187817        86.7449 
 129   0.0000       3.369314        91.6837 
 130   0.0000       3.406797        92.7037 
 131   0.0000       3.471456        94.4631 
 132   0.0000       3.651507        99.3626 

                 SPIN DOWN ORBITALS
  NO   OCC          E(Eh)            E(eV) 
   0   1.0000     -19.230361      -523.2847 
   1   1.0000     -19.216438      -522.9059 
   2   1.0000     -10.288295      -279.9587 
   3   1.0000     -10.287854      -279.9467 
   4   1.0000     -10.240171      -278.6492 
   5   1.0000     -10.233512      -278.4680 
   6   1.0000     -10.227387      -278.3014 
   7   1.0000      -1.122084       -30.5334 
   8   1.0000      -0.922768       -25.1098 
   9   1.0000      -0.832600       -22.6562 
  10   1.0000      -0.745728       -20.2923 
  11   1.0000      -0.677138       -18.4258 
  12   1.0000      -0.592897       -16.1335 
  13   1.0000      -0.563216       -15.3259 
  14   1.0000      -0.553684       -15.0665 
  15   1.0000      -0.466615       -12.6972 
  16   1.0000      -0.464165       -12.6306 
  17   1.0000      -0.438032       -11.9194 
  18   1.0000      -0.431137       -11.7318 
  19   1.0000      -0.401776       -10.9329 
  20   1.0000      -0.395205       -10.7541 
  21   1.0000      -0.368987       -10.0407 
  22   1.0000      -0.323154        -8.7935 
  23   1.0000      -0.305402        -8.3104 
  24   1.0000      -0.300495        -8.1769 
  25   1.0000      -0.233228        -6.3465 
  26   0.0000      -0.123226        -3.3531 
  27   0.0000       0.003580         0.0974 
  28   0.0000       0.076828         2.0906 
  29   0.0000       0.096331         2.6213 
  30   0.0000       0.110568         3.0087 
  31   0.0000       0.118378         3.2212 
  32   0.0000       0.130650         3.5552 
  33   0.0000       0.145511         3.9596 
  34   0.0000       0.147990         4.0270 
  35   0.0000       0.154475         4.2035 
  36   0.0000       0.170046         4.6272 
  37   0.0000       0.213908         5.8207 
  38   0.0000       0.227088         6.1794 
  39   0.0000       0.309001         8.4084 
  40   0.0000       0.320214         8.7135 
  41   0.0000       0.392489        10.6802 
  42   0.0000       0.405453        11.0329 
  43   0.0000       0.458929        12.4881 
  44   0.0000       0.481220        13.0947 
  45   0.0000       0.487105        13.2548 
  46   0.0000       0.506745        13.7892 
  47   0.0000       0.520130        14.1535 
  48   0.0000       0.533543        14.5184 
  49   0.0000       0.556504        15.1432 
  50   0.0000       0.575041        15.6477 
  51   0.0000       0.605133        16.4665 
  52   0.0000       0.614985        16.7346 
  53   0.0000       0.632354        17.2072 
  54   0.0000       0.641884        17.4665 
  55   0.0000       0.648594        17.6491 
  56   0.0000       0.675622        18.3846 
  57   0.0000       0.686195        18.6723 
  58   0.0000       0.688885        18.7455 
  59   0.0000       0.690301        18.7840 
  60   0.0000       0.710916        19.3450 
  61   0.0000       0.732035        19.9197 
  62   0.0000       0.766752        20.8644 
  63   0.0000       0.819713        22.3055 
  64   0.0000       0.857558        23.3354 
  65   0.0000       0.903982        24.5986 
  66   0.0000       0.954255        25.9666 
  67   0.0000       0.973315        26.4852 
  68   0.0000       0.996982        27.1292 
  69   0.0000       1.027784        27.9674 
  70   0.0000       1.057870        28.7861 
  71   0.0000       1.087544        29.5936 
  72   0.0000       1.105972        30.0950 
  73   0.0000       1.129688        30.7404 
  74   0.0000       1.204940        32.7881 
  75   0.0000       1.240360        33.7519 
  76   0.0000       1.319866        35.9154 
  77   0.0000       1.329282        36.1716 
  78   0.0000       1.364207        37.1220 
  79   0.0000       1.440290        39.1923 
  80   0.0000       1.462353        39.7926 
  81   0.0000       1.490657        40.5628 
  82   0.0000       1.545417        42.0529 
  83   0.0000       1.560406        42.4608 
  84   0.0000       1.614344        43.9285 
  85   0.0000       1.640256        44.6336 
  86   0.0000       1.668782        45.4099 
  87   0.0000       1.705537        46.4100 
  88   0.0000       1.710980        46.5581 
  89   0.0000       1.748963        47.5917 
  90   0.0000       1.765160        48.0324 
  91   0.0000       1.787698        48.6457 
  92   0.0000       1.821528        49.5663 
  93   0.0000       1.841508        50.1100 
  94   0.0000       1.865969        50.7756 
  95   0.0000       1.891239        51.4632 
  96   0.0000       1.961300        53.3697 
  97   0.0000       1.968259        53.5591 
  98   0.0000       2.001140        54.4538 
  99   0.0000       2.019051        54.9412 
 100   0.0000       2.026582        55.1461 
 101   0.0000       2.102074        57.2003 
 102   0.0000       2.133121        58.0452 
 103   0.0000       2.161720        58.8234 
 104   0.0000       2.174885        59.1816 
 105   0.0000       2.209258        60.1170 
 106   0.0000       2.249671        61.2167 
 107   0.0000       2.276453        61.9454 
 108   0.0000       2.296925        62.5025 
 109   0.0000       2.392627        65.1067 
 110   0.0000       2.435163        66.2642 
 111   0.0000       2.494600        67.8815 
 112   0.0000       2.524426        68.6931 
 113   0.0000       2.610302        71.0299 
 114   0.0000       2.663879        72.4878 
 115   0.0000       2.694820        73.3298 
 116   0.0000       2.708966        73.7147 
 117   0.0000       2.734949        74.4217 
 118   0.0000       2.759068        75.0781 
 119   0.0000       2.783011        75.7296 
 120   0.0000       2.836024        77.1721 
 121   0.0000       2.888658        78.6044 
 122   0.0000       2.907145        79.1074 
 123   0.0000       2.952971        80.3544 
 124   0.0000       2.969873        80.8143 
 125   0.0000       2.993018        81.4442 
 126   0.0000       3.062949        83.3471 
 127   0.0000       3.100742        84.3755 
 128   0.0000       3.188481        86.7630 
 129   0.0000       3.370802        91.7242 
 130   0.0000       3.406999        92.7092 
 131   0.0000       3.471868        94.4743 
 132   0.0000       3.678647       100.1011 

                    ********************************
                    * MULLIKEN POPULATION ANALYSIS *
                    ********************************

--------------------------------------------
MULLIKEN ATOMIC CHARGES AND SPIN POPULATIONS
--------------------------------------------
   0 O :   -0.207625    1.002630
   1 O :   -0.338803    0.022148
   2 C :   -0.015928   -0.000319
   3 C :    0.065464   -0.001115
   4 C :    0.023495    0.006174
   5 C :   -0.134370   -0.000243
   6 C :    0.118084   -0.000074
   7 H :    0.202007   -0.029811
   8 H :    0.060565    0.000756
   9 H :    0.053797   -0.000127
  10 H :    0.032095   -0.000319
  11 H :    0.030620    0.000551
  12 H :    0.054920   -0.000213
  13 H :    0.055678   -0.000039
Sum of atomic charges         :    0.0000000
Sum of atomic spin populations:    1.0000000

-----------------------------------------------------
MULLIKEN REDUCED ORBITAL CHARGES AND SPIN POPULATIONS
-----------------------------------------------------
CHARGE
  0 O s       :     3.880115  s :     3.880115
      pz      :     1.424270  p :     4.321559
      px      :     1.388954
      py      :     1.508336
      dz2     :     0.000369  d :     0.005950
      dxz     :     0.000642
      dyz     :     0.002398
      dx2y2   :     0.001686
      dxy     :     0.000855
  1 O s       :     3.863480  s :     3.863480
      pz      :     1.439737  p :     4.453978
      px      :     1.686431
      py      :     1.327810
      dz2     :     0.005064  d :     0.021345
      dxz     :     0.002699
      dyz     :     0.005747
      dx2y2   :     0.004266
      dxy     :     0.003569
  2 C s       :     3.243856  s :     3.243856
      pz      :     0.794742  p :     2.698100
      px      :     0.970975
      py      :     0.932383
      dz2     :     0.019109  d :     0.073972
      dxz     :     0.017348
      dyz     :     0.018721
      dx2y2   :     0.008751
      dxy     :     0.010044
  3 C s       :     3.210345  s :     3.210345
      pz      :     0.957339  p :     2.652977
      px      :     0.940626
      py      :     0.755012
      dz2     :     0.008698  d :     0.071214
      dxz     :     0.010037
      dyz     :     0.013871
      dx2y2   :     0.020622
      dxy     :     0.017986
  4 C s       :     3.144583  s :     3.144583
      pz      :     0.991343  p :     2.796890
      px      :     0.847561
      py      :     0.957986
      dz2     :     0.005591  d :     0.035032
      dxz     :     0.007914
      dyz     :     0.004847
      dx2y2   :     0.008704
      dxy     :     0.007976
  5 C s       :     3.211541  s :     3.211541
      pz      :     0.971325  p :     2.883984
      px      :     0.948034
      py      :     0.964625
      dz2     :     0.007527  d :     0.038846
      dxz     :     0.007872
      dyz     :     0.005832
      dx2y2   :     0.008334
      dxy     :     0.009281
  6 C s       :     2.925544  s :     2.925544
      pz      :     0.987138  p :     2.919424
      px      :     0.932541
      py      :     0.999745
      dz2     :     0.008189  d :     0.036947
      dxz     :     0.008457
      dyz     :     0.005992
      dx2y2   :     0.007457
      dxy     :     0.006853
  7 H s       :     0.734908  s :     0.734908
      pz      :     0.017860  p :     0.063085
      px      :     0.014739
      py      :     0.030486
  8 H s       :     0.916884  s :     0.916884
      pz      :     0.002498  p :     0.022551
      px      :     0.015123
      py      :     0.004931
  9 H s       :     0.923399  s :     0.923399
      pz      :     0.007777  p :     0.022804
      px      :     0.004414
      py      :     0.010614
 10 H s       :     0.943445  s :     0.943445
      pz      :     0.007809  p :     0.024461
      px      :     0.011618
      py      :     0.005033
 11 H s       :     0.945781  s :     0.945781
      pz      :     0.004929  p :     0.023599
      px      :     0.010513
      py      :     0.008157
 12 H s       :     0.921934  s :     0.921934
      pz      :     0.012674  p :     0.023145
      px      :     0.004326
      py      :     0.006146
 13 H s       :     0.921342  s :     0.921342
      pz      :     0.004273  p :     0.022979
      px      :     0.005374
      py      :     0.013333

SPIN
  0 O s       :     0.014148  s :     0.014148
      pz      :     0.392358  p :     0.988091
      px      :     0.548807
      py      :     0.046926
      dz2     :     0.000116  d :     0.000391
      dxz     :     0.000088
      dyz     :     0.000023
      dx2y2   :    -0.000069
      dxy     :     0.000233
  1 O s       :     0.001036  s :     0.001036
      pz      :     0.003533  p :     0.021094
      px      :     0.015159
      py      :     0.002402
      dz2     :    -0.000004  d :     0.000018
      dxz     :     0.000030
      dyz     :     0.000000
      dx2y2   :     0.000005
      dxy     :    -0.000014
  2 C s       :     0.000461  s :     0.000461
      pz      :    -0.001236  p :    -0.000798
      px      :     0.000572
      py      :    -0.000134
      dz2     :     0.000034  d :     0.000018
      dxz     :    -0.000052
      dyz     :    -0.000013
      dx2y2   :     0.000007
      dxy     :     0.000041
  3 C s       :     0.000240  s :     0.000240
      pz      :    -0.000135  p :    -0.001366
      px      :    -0.000346
      py      :    -0.000886
      dz2     :     0.000004  d :     0.000012
      dxz     :     0.000005
      dyz     :     0.000004
      dx2y2   :    -0.000006
      dxy     :     0.000003
  4 C s       :     0.000900  s :     0.000900
      pz      :     0.002392  p :     0.005289
      px      :    -0.000056
      py      :     0.002953
      dz2     :    -0.000005  d :    -0.000014
      dxz     :    -0.000001
      dyz     :    -0.000014
      dx2y2   :     0.000016
      dxy     :    -0.000010
  5 C s       :     0.000065  s :     0.000065
      pz      :    -0.000408  p :    -0.000369
      px      :     0.000523
      py      :    -0.000483
      dz2     :     0.000032  d :     0.000061
      dxz     :     0.000027
      dyz     :     0.000010
      dx2y2   :     0.000001
      dxy     :    -0.000009
  6 C s       :     0.000121  s :     0.000121
      pz      :     0.000027  p :    -0.000191
      px      :     0.000031
      py      :    -0.000250
      dz2     :    -0.000019  d :    -0.000004
      dxz     :     0.000017
      dyz     :    -0.000005
      dx2y2   :     0.000000
      dxy     :     0.000002
  7 H s       :    -0.035780  s :    -0.035780
      pz      :     0.002774  p :     0.005969
      px      :     0.003388
      py      :    -0.000194
  8 H s       :     0.000664  s :     0.000664
      pz      :     0.000016  p :     0.000092
      px      :     0.000070
      py      :     0.000006
  9 H s       :    -0.000188  s :    -0.000188
      pz      :     0.000009  p :     0.000061
      px      :     0.000051
      py      :     0.000001
 10 H s       :    -0.000348  s :    -0.000348
      pz      :     0.000020  p :     0.000030
      px      :     0.000001
      py      :     0.000009
 11 H s       :     0.000546  s :     0.000546
      pz      :    -0.000001  p :     0.000004
      px      :    -0.000004
      py      :     0.000010
 12 H s       :    -0.000212  s :    -0.000212
      pz      :     0.000001  p :    -0.000001
      px      :    -0.000003
      py      :     0.000001
 13 H s       :    -0.000040  s :    -0.000040
      pz      :    -0.000000  p :     0.000001
      px      :     0.000001
      py      :     0.000001


                     *******************************
                     * LOEWDIN POPULATION ANALYSIS *
                     *******************************

-------------------------------------------
LOEWDIN ATOMIC CHARGES AND SPIN POPULATIONS
-------------------------------------------
   0 O :   -0.093496    0.972454
   1 O :   -0.164314    0.022814
   2 C :    0.047846    0.001044
   3 C :    0.048413   -0.000163
   4 C :   -0.058313    0.004820
   5 C :   -0.010214    0.000562
   6 C :   -0.046362   -0.000206
   7 H :    0.081839   -0.002562
   8 H :    0.027106    0.000821
   9 H :    0.028549    0.000278
  10 H :    0.030986   -0.000005
  11 H :    0.026731    0.000325
  12 H :    0.038919   -0.000160
  13 H :    0.042309   -0.000023

----------------------------------------------------
LOEWDIN REDUCED ORBITAL CHARGES AND SPIN POPULATIONS
----------------------------------------------------
CHARGE
  0 O s       :     3.709676  s :     3.709676
      pz      :     1.432843  p :     4.373687
      px      :     1.376634
      py      :     1.564209
      dz2     :     0.000289  d :     0.010132
      dxz     :     0.000818
      dyz     :     0.004720
      dx2y2   :     0.003019
      dxy     :     0.001288
  1 O s       :     3.551786  s :     3.551786
      pz      :     1.488732  p :     4.576944
      px      :     1.685729
      py      :     1.402484
      dz2     :     0.008188  d :     0.035584
      dxz     :     0.004072
      dyz     :     0.010667
      dx2y2   :     0.007004
      dxy     :     0.005653
  2 C s       :     2.861034  s :     2.861034
      pz      :     0.882168  p :     2.928779
      px      :     1.050601
      py      :     0.996011
      dz2     :     0.037415  d :     0.162341
      dxz     :     0.041483
      dyz     :     0.042225
      dx2y2   :     0.018088
      dxy     :     0.023129
  3 C s       :     2.864957  s :     2.864957
      pz      :     1.025929  p :     2.929576
      px      :     1.013045
      py      :     0.890601
      dz2     :     0.019052  d :     0.157054
      dxz     :     0.023238
      dyz     :     0.029742
      dx2y2   :     0.049405
      dxy     :     0.035617
  4 C s       :     2.875817  s :     2.875817
      pz      :     1.038490  p :     3.091140
      px      :     1.018164
      py      :     1.034486
      dz2     :     0.011886  d :     0.091355
      dxz     :     0.020915
      dyz     :     0.013563
      dx2y2   :     0.024206
      dxy     :     0.020784
  5 C s       :     2.877113  s :     2.877113
      pz      :     0.997707  p :     3.036785
      px      :     1.003374
      py      :     1.035704
      dz2     :     0.015923  d :     0.096317
      dxz     :     0.020598
      dyz     :     0.015266
      dx2y2   :     0.021314
      dxy     :     0.023215
  6 C s       :     2.840891  s :     2.840891
      pz      :     1.037870  p :     3.110004
      px      :     1.022172
      py      :     1.049962
      dz2     :     0.020994  d :     0.095467
      dxz     :     0.023089
      dyz     :     0.014671
      dx2y2   :     0.019610
      dxy     :     0.017103
  7 H s       :     0.751002  s :     0.751002
      pz      :     0.048223  p :     0.167159
      px      :     0.037217
      py      :     0.081719
  8 H s       :     0.901817  s :     0.901817
      pz      :     0.010464  p :     0.071076
      px      :     0.044627
      py      :     0.015985
  9 H s       :     0.900588  s :     0.900588
      pz      :     0.023839  p :     0.070863
      px      :     0.015717
      py      :     0.031306
 10 H s       :     0.897274  s :     0.897274
      pz      :     0.022603  p :     0.071741
      px      :     0.034357
      py      :     0.014780
 11 H s       :     0.903933  s :     0.903933
      pz      :     0.015594  p :     0.069336
      px      :     0.031270
      py      :     0.022472
 12 H s       :     0.894419  s :     0.894419
      pz      :     0.036368  p :     0.066661
      px      :     0.013180
      py      :     0.017114
 13 H s       :     0.890795  s :     0.890795
      pz      :     0.012678  p :     0.066896
      px      :     0.016328
      py      :     0.037890

[...]
      px      :     0.950170
      py      :     0.962058
      dz2     :     0.007457  d :     0.039153
      dxz     :     0.007768
      dyz     :     0.005907
      dx2y2   :     0.008253
      dxy     :     0.009767
  6 C s       :     2.929360  s :     2.929360
      pz      :     0.983753  p :     2.922157
      px      :     0.935390
      py      :     1.003013
      dz2     :     0.007805  d :     0.036291
      dxz     :     0.008596
      dyz     :     0.005985
      dx2y2   :     0.007091
      dxy     :     0.006814
  7 H s       :     0.734727  s :     0.734727
      pz      :     0.016931  p :     0.068133
      px      :     0.029093
      py      :     0.022109
  8 H s       :     0.922222  s :     0.922222
      pz      :     0.002416  p :     0.022391
      px      :     0.015029
      py      :     0.004946
  9 H s       :     0.925335  s :     0.925335
      pz      :     0.007649  p :     0.022714
      px      :     0.004155
      py      :     0.010910
 10 H s       :     0.934353  s :     0.934353
      pz      :     0.007873  p :     0.024581
      px      :     0.011777
      py      :     0.004931
 11 H s       :     0.944076  s :     0.944076
      pz      :     0.004775  p :     0.023503
      px      :     0.010330
      py      :     0.008398
 12 H s       :     0.909400  s :     0.909400
      pz      :     0.012848  p :     0.023264
      px      :     0.004371
      py      :     0.006044
 13 H s       :     0.914142  s :     0.914142
      pz      :     0.004224  p :     0.023134
      px      :     0.005520
      py      :     0.013390

SPIN
  0 O s       :     0.015755  s :     0.015755
      pz      :     0.401477  p :     1.009299
      px      :     0.349081
      py      :     0.258741
      dz2     :     0.000029  d :     0.000448
      dxz     :     0.000039
      dyz     :     0.000260
      dx2y2   :     0.000245
      dxy     :    -0.000125
  1 O s       :    -0.000084  s :    -0.000084
      pz      :    -0.000321  p :    -0.001399
      px      :    -0.001010
      py      :    -0.000067
      dz2     :     0.000004  d :    -0.000007
      dxz     :    -0.000010
      dyz     :    -0.000000
      dx2y2   :    -0.000003
      dxy     :     0.000003
  2 C s       :     0.000529  s :     0.000529
      pz      :    -0.000158  p :    -0.000361
      px      :    -0.000145
      py      :    -0.000058
      dz2     :    -0.000002  d :     0.000005
      dxz     :    -0.000003
      dyz     :     0.000013
      dx2y2   :    -0.000000
      dxy     :    -0.000003
  3 C s       :     0.000618  s :     0.000618
      pz      :    -0.000197  p :     0.000064
      px      :    -0.000102
      py      :     0.000364
      dz2     :     0.000000  d :     0.000004
      dxz     :     0.000000
      dyz     :    -0.000002
      dx2y2   :     0.000006
      dxy     :    -0.000000
  4 C s       :    -0.000012  s :    -0.000012
      pz      :    -0.000040  p :     0.000021
      px      :     0.000063
      py      :    -0.000002
      dz2     :     0.000001  d :     0.000001
      dxz     :     0.000000
      dyz     :     0.000001
      dx2y2   :    -0.000001
      dxy     :     0.000001
  5 C s       :     0.000001  s :     0.000001
      pz      :     0.000022  p :    -0.000040
      px      :    -0.000025
      py      :    -0.000037
      dz2     :    -0.000001  d :    -0.000003
      dxz     :    -0.000003
      dyz     :    -0.000000
      dx2y2   :     0.000000
      dxy     :     0.000000
  6 C s       :     0.000070  s :     0.000070
      pz      :    -0.000015  p :     0.000169
      px      :     0.000115
      py      :     0.000070
      dz2     :    -0.000000  d :     0.000000
      dxz     :    -0.000001
      dyz     :     0.000001
      dx2y2   :    -0.000000
      dxy     :     0.000000
  7 H s       :    -0.031997  s :    -0.031997
      pz      :     0.002541  p :     0.006362
      px      :     0.002284
      py      :     0.001536
  8 H s       :     0.000094  s :     0.000094
      pz      :    -0.000000  p :     0.000012
      px      :     0.000013
      py      :    -0.000000
  9 H s       :     0.000464  s :     0.000464
      pz      :     0.000007  p :     0.000007
      px      :    -0.000003
      py      :     0.000003
 10 H s       :     0.000010  s :     0.000010
      pz      :    -0.000001  p :    -0.000003
      px      :     0.000000
      py      :    -0.000002
 11 H s       :    -0.000035  s :    -0.000035
      pz      :     0.000000  p :     0.000003
      px      :     0.000001
      py      :     0.000001
 12 H s       :     0.000013  s :     0.000013
      pz      :     0.000000  p :     0.000000
      px      :    -0.000001
      py      :     0.000001
 13 H s       :    -0.000010  s :    -0.000010
      pz      :     0.000001  p :     0.000001
      px      :    -0.000001
      py      :     0.000000


                     *******************************
                     * LOEWDIN POPULATION ANALYSIS *
                     *******************************

-------------------------------------------
LOEWDIN ATOMIC CHARGES AND SPIN POPULATIONS
-------------------------------------------
   0 O :   -0.092409    0.997594
   1 O :   -0.153811   -0.002123
   2 C :    0.050101    0.000184
   3 C :    0.054887    0.000361
   4 C :   -0.062250    0.000011
   5 C :    0.002922    0.000062
   6 C :   -0.044695    0.000173
   7 H :    0.038017    0.003217
   8 H :    0.025189    0.000191
   9 H :    0.028667    0.000362
  10 H :    0.035767   -0.000003
  11 H :    0.025544   -0.000026
  12 H :    0.045605   -0.000004
  13 H :    0.046466   -0.000000

----------------------------------------------------
LOEWDIN REDUCED ORBITAL CHARGES AND SPIN POPULATIONS
----------------------------------------------------
CHARGE
  0 O s       :     3.694954  s :     3.694954
      pz      :     1.519780  p :     4.387473
      px      :     1.338615
      py      :     1.529077
      dz2     :     0.001591  d :     0.009982
      dxz     :     0.001318
      dyz     :     0.000690
      dx2y2   :     0.000586
      dxy     :     0.005797
  1 O s       :     3.544718  s :     3.544718
      pz      :     1.459278  p :     4.573514
      px      :     1.680764
      py      :     1.433472
      dz2     :     0.008492  d :     0.035579
      dxz     :     0.004326
      dyz     :     0.010760
      dx2y2   :     0.006366
      dxy     :     0.005636
  2 C s       :     2.853213  s :     2.853213
      pz      :     0.877448  p :     2.929551
      px      :     1.051956
      py      :     1.000148
      dz2     :     0.041233  d :     0.167135
      dxz     :     0.041280
      dyz     :     0.043230
      dx2y2   :     0.018635
      dxy     :     0.022757
  3 C s       :     2.858654  s :     2.858654
      pz      :     1.021584  p :     2.926419
      px      :     1.013646
      py      :     0.891188
      dz2     :     0.018748  d :     0.160041
      dxz     :     0.024892
      dyz     :     0.030437
      dx2y2   :     0.047345
      dxy     :     0.038619
  4 C s       :     2.873307  s :     2.873307
      pz      :     1.040480  p :     3.098314
      px      :     1.020409
      py      :     1.037425
      dz2     :     0.011420  d :     0.090629
      dxz     :     0.020160
      dyz     :     0.013112
      dx2y2   :     0.024911
      dxy     :     0.021025
  5 C s       :     2.881642  s :     2.881642
      pz      :     0.985143  p :     3.019453
      px      :     0.997546
      py      :     1.036764
      dz2     :     0.015723  d :     0.095982
      dxz     :     0.020110
      dyz     :     0.014875
      dx2y2   :     0.021022
      dxy     :     0.024253
  6 C s       :     2.838593  s :     2.838593
      pz      :     1.036964  p :     3.111802
      px      :     1.023552
      py      :     1.051287
      dz2     :     0.020130  d :     0.094300
      dxz     :     0.023557
      dyz     :     0.014760
      dx2y2   :     0.018680
      dxy     :     0.017173
  7 H s       :     0.763481  s :     0.763481
      pz      :     0.046467  p :     0.198502
      px      :     0.085825
      py      :     0.066210
  8 H s       :     0.903112  s :     0.903112
      pz      :     0.010929  p :     0.071699
      px      :     0.044465
      py      :     0.016306
  9 H s       :     0.900183  s :     0.900183
      pz      :     0.023636  p :     0.071150
      px      :     0.015498
      py      :     0.032016
 10 H s       :     0.892065  s :     0.892065
      pz      :     0.023010  p :     0.072168
      px      :     0.034503
      py      :     0.014655
 11 H s       :     0.904945  s :     0.904945
      pz      :     0.015238  p :     0.069511
      px      :     0.031085
      py      :     0.023188
 12 H s       :     0.887609  s :     0.887609
      pz      :     0.036580  p :     0.066786
      px      :     0.013307
      py      :     0.016899
 13 H s       :     0.886346  s :     0.886346
      pz      :     0.012476  p :     0.067188
      px      :     0.016808
      py      :     0.037904

SPIN
  0 O s       :     0.009802  s :     0.009802
      pz      :     0.395759  p :     0.987538
      px      :     0.339841
      py      :     0.251938
      dz2     :    -0.000019  d :     0.000255
      dxz     :     0.000160
      dyz     :     0.000042
      dx2y2   :     0.000068
      dxy     :     0.000003
  1 O s       :    -0.000303  s :    -0.000303
      pz      :    -0.000422  p :    -0.001810
      px      :    -0.001266
      py      :    -0.000121
      dz2     :     0.000003  d :    -0.000010
      dxz     :    -0.000010
      dyz     :    -0.000000
      dx2y2   :    -0.000004
      dxy     :     0.000002
  2 C s       :     0.000009  s :     0.000009
      pz      :    -0.000005  p :     0.000182
      px      :     0.000189
      py      :    -0.000001
      dz2     :    -0.000018  d :    -0.000007
      dxz     :     0.000002
      dyz     :     0.000020
      dx2y2   :    -0.000004
      dxy     :    -0.000007
  3 C s       :     0.000050  s :     0.000050
      pz      :     0.000123  p :     0.000310
      px      :     0.000048
      py      :     0.000140
      dz2     :    -0.000000  d :     0.000001
      dxz     :    -0.000003
      dyz     :    -0.000006
      dx2y2   :     0.000017
      dxy     :    -0.000006
  4 C s       :     0.000027  s :     0.000027
      pz      :    -0.000081  p :    -0.000016
      px      :     0.000098
      py      :    -0.000032
      dz2     :     0.000001  d :    -0.000000
      dxz     :     0.000000
      dyz     :     0.000002
      dx2y2   :    -0.000002
      dxy     :    -0.000001
  5 C s       :    -0.000016  s :    -0.000016
      pz      :     0.000039  p :     0.000088
      px      :     0.000015
      py      :     0.000034
      dz2     :    -0.000003  d :    -0.000010
      dxz     :    -0.000007
      dyz     :     0.000000
      dx2y2   :     0.000002
      dxy     :    -0.000002
  6 C s       :     0.000028  s :     0.000028
      pz      :     0.000045  p :     0.000149
      px      :     0.000050
      py      :     0.000054
      dz2     :    -0.000003  d :    -0.000004
      dxz     :    -0.000001
      dyz     :     0.000002
      dx2y2   :     0.000000
      dxy     :    -0.000002
  7 H s       :    -0.021259  s :    -0.021259
      pz      :     0.008681  p :     0.024476
      px      :     0.009476
      py      :     0.006319
  8 H s       :     0.000166  s :     0.000166
      pz      :    -0.000004  p :     0.000024
      px      :     0.000033
      py      :    -0.000005
  9 H s       :     0.000320  s :     0.000320
      pz      :     0.000024  p :     0.000043
      px      :     0.000006
      py      :     0.000012
 10 H s       :    -0.000002  s :    -0.000002
      pz      :    -0.000002  p :    -0.000001
      px      :     0.000002
      py      :    -0.000000
 11 H s       :    -0.000027  s :    -0.000027
      pz      :     0.000000  p :     0.000001
      px      :    -0.000001
      py      :     0.000002
 12 H s       :    -0.000008  s :    -0.000008
      pz      :     0.000001  p :     0.000004
      px      :     0.000002
      py      :     0.000001
 13 H s       :    -0.000005  s :    -0.000005
      pz      :    -0.000000  p :     0.000004
      px      :     0.000002
      py      :     0.000002


                      *****************************
                      * MAYER POPULATION ANALYSIS *
                      *****************************

  NA   - Mulliken gross atomic population
  ZA   - Total nuclear charge
  QA   - Mulliken gross atomic charge
  VA   - Mayer's total valence
  BVA  - Mayer's bonded valence
  FA   - Mayer's free valence

  ATOM       NA         ZA         QA         VA         BVA        FA
  0 O      8.2264     8.0000    -0.2264     1.9830     1.0037     0.9793
  1 O      8.3503     8.0000    -0.3503     1.9853     1.9853     0.0000
  2 C      6.0119     6.0000    -0.0119     3.9659     3.9659    -0.0000
  3 C      5.9196     6.0000     0.0804     3.8660     3.8660     0.0000
  4 C      5.9838     6.0000     0.0162     3.7752     3.7752     0.0000
  5 C      6.1282     6.0000    -0.1282     4.0022     4.0022     0.0000
  6 C      5.8878     6.0000     0.1122     3.7992     3.7992     0.0000
  7 H      0.8029     1.0000     0.1971     1.0424     1.0412     0.0012
  8 H      0.9446     1.0000     0.0554     1.0039     1.0039     0.0000
  9 H      0.9480     1.0000     0.0520     1.0011     1.0011     0.0000
 10 H      0.9589     1.0000     0.0411     0.9906     0.9906     0.0000
 11 H      0.9676     1.0000     0.0324     0.9883     0.9883     0.0000
 12 H      0.9327     1.0000     0.0673     0.9819     0.9819     0.0000
 13 H      0.9373     1.0000     0.0627     0.9830     0.9830     0.0000

  Mayer bond orders larger than 0.100000
B(  0-O ,  7-H ) :   0.9319 B(  1-O ,  2-C ) :   0.9191 B(  1-O ,  3-C ) :   0.8908 
B(  1-O ,  7-H ) :   0.1022 B(  2-C ,  3-C ) :   1.0025 B(  2-C ,  6-C ) :   0.9961 
B(  2-C ,  8-H ) :   0.9720 B(  3-C ,  4-C ) :   0.9708 B(  3-C ,  9-H ) :   0.9833 
B(  4-C ,  5-C ) :   1.8395 B(  4-C , 10-H ) :   0.9948 B(  5-C ,  6-C ) :   1.0228 
B(  5-C , 11-H ) :   0.9659 B(  6-C , 12-H ) :   0.9243 B(  6-C , 13-H ) :   0.9247 



------------------
HIRSHFELD ANALYSIS
------------------

Total integrated alpha density =     26.999988611
Total integrated beta density  =     25.999989646

  ATOM     CHARGE      SPIN    
   0 O   -0.199374    0.962037
   1 O   -0.160328   -0.001888
   2 C    0.050661    0.000651
   3 C    0.046231    0.000724
   4 C   -0.058347    0.000022
   5 C   -0.018463    0.000033
   6 C   -0.039984    0.000144
   7 H    0.113926    0.036065
   8 H    0.048805    0.001078
   9 H    0.052620    0.001159
  10 H    0.048408   -0.000007
  11 H    0.033182   -0.000021
  12 H    0.041174   -0.000003
  13 H    0.041510    0.000004

  TOTAL   0.000022    0.999999

-------
TIMINGS
-------

Total SCF time: 0 days 0 hours 0 min 5 sec 

Total time                  ....       5.716 sec
Sum of individual times     ....       5.580 sec  ( 97.6%)

Fock matrix formation       ....       4.864 sec  ( 85.1%)
  Split-RI-J                ....       0.429 sec  (  8.8% of F)
  Chain of spheres X        ....       3.498 sec  ( 71.9% of F)
  XC integration            ....       0.900 sec  ( 18.5% of F)
    Basis function eval.    ....       0.265 sec  ( 29.5% of XC)
    Density eval.           ....       0.237 sec  ( 26.3% of XC)
    XC-Functional eval.     ....       0.089 sec  (  9.9% of XC)
    XC-Potential eval.      ....       0.194 sec  ( 21.6% of XC)
Diagonalization             ....       0.076 sec  (  1.3%)
Density matrix formation    ....       0.005 sec  (  0.1%)
Population analysis         ....       0.148 sec  (  2.6%)
Initial guess               ....       0.008 sec  (  0.1%)
Orbital Transformation      ....       0.000 sec  (  0.0%)
Orbital Orthonormalization  ....       0.004 sec  (  0.1%)
DIIS solution               ....       0.050 sec  (  0.9%)
Grid generation             ....       0.428 sec  (  7.5%)

Maximum memory used throughout the entire SCF-calculation: 50.6 MB


-------------------------------------------------------------------------------
                          DFT DISPERSION CORRECTION                            
                                                                               
                              DFTD3 V3.1  Rev 1                                
                          USING Becke-Johnson damping                          
-------------------------------------------------------------------------------
The PBE0 functional is recognized
Active option DFTDOPT                   ...         4   

molecular C6(AA) [au] = 1724.476893 


            DFT-D V3
 parameters
 s6 scaling factor         :     1.0000 
 a1 scaling factor         :     0.4145 
 s8 scaling factor         :     1.2177 
 a2 scaling factor         :     4.8593 
 ad hoc parameters k1-k3   :    16.0000     1.3333    -4.0000 

 Edisp/kcal,au: -6.082555612985  -0.009693168335 
 E6   /kcal   :  -3.874394757 
 E8   /kcal   :  -2.208160856 
 % E8         :  36.303175776 

-------------------------   ----------------
Dispersion correction           -0.009693168
-------------------------   ----------------


-------------------------   --------------------
FINAL SINGLE POINT ENERGY      -344.362351662276
-------------------------   --------------------

                                *** OPTIMIZATION RUN DONE ***

                            ***************************************
                            *     ORCA property calculations      *
                            ***************************************

                                    ---------------------
                                    Active property flags
                                    ---------------------
   (+) Dipole Moment


------------------------------------------------------------------------------
                       ORCA ELECTRIC PROPERTIES CALCULATION
------------------------------------------------------------------------------

Dipole Moment Calculation                       ... on
Quadrupole Moment Calculation                   ... off
Polarizability Calculation                      ... off
GBWName                                         ... path_opt7_orca.gbw
Electron density                                ... path_opt7_orca.scfp
The origin for moment calculation is the CENTER OF MASS  = (-0.381356,  0.083171  0.514328)

-------------
DIPOLE MOMENT
-------------
                                X             Y             Z
Electronic contribution:     -1.17454       0.56964       2.19892
Nuclear contribution   :      1.93042      -0.59992      -3.06494
                        -----------------------------------------
Total Dipole Moment    :      0.75589      -0.03027      -0.86602
                        -----------------------------------------
Magnitude (a.u.)       :      1.14990
Magnitude (Debye)      :      2.92282



--------------------
Rotational spectrum 
--------------------
 
Rotational constants in cm-1:     0.202739     0.059384     0.051491 
Rotational constants in MHz :  6077.955725  1780.297409  1543.665161 

 Dipole components along the rotational axes: 
x,y,z [a.u.] :     1.101824     0.148877    -0.293416 
x,y,z [Debye]:     2.800615     0.378415    -0.745805 

 

Timings for individual modules:

Sum of individual times         ...      938.331 sec (=  15.639 min)
GTO integral calculation        ...        9.042 sec (=   0.151 min)   1.0 %
SCF iterations                  ...      886.175 sec (=  14.770 min)  94.4 %
SCF Gradient evaluation         ...       42.344 sec (=   0.706 min)   4.5 %
Geometry relaxation             ...        0.770 sec (=   0.013 min)   0.1 %
                             ****ORCA TERMINATED NORMALLY****
TOTAL RUN TIME: 0 days 0 hours 15 minutes 45 seconds 869 msec
