      -----------------------------------------------------------      
     |                   =====================                   |     
     |                           x T B                           |     
     |                   =====================                   |     
     |                         S. Grimme                         |     
     |          Mulliken Center for Theoretical Chemistry        |     
     |                    University of Bonn                     |     
      -----------------------------------------------------------      

   * xtb version 6.6.1 (8d0f1dd) compiled by 'conda@1efc2f54142f' on 2023-08-01

   xtb is free software: you can redistribute it and/or modify it under
   the terms of the GNU Lesser General Public License as published by
   the Free Software Foundation, either version 3 of the License, or
   (at your option) any later version.
   
   xtb is distributed in the hope that it will be useful,
   but WITHOUT ANY WARRANTY; without even the implied warranty of
   MERCHANTABILITY or FITNESS FOR A PARTICULAR PURPOSE.  See the
   GNU Lesser General Public License for more details.
   
   Cite this work as:
   * C. Bannwarth, E. Caldeweyher, S. Ehlert, A. Hansen, P. Pracht,
     J. Seibert, S. Spicher, S. Grimme, WIREs Comput. Mol. Sci., 2020, 11,
     e01493. DOI: 10.1002/wcms.1493
   
   for GFN2-xTB:
   * C. Bannwarth, S. Ehlert and S. Grimme., J. Chem. Theory Comput., 2019,
     15, 1652-1671. DOI: 10.1021/acs.jctc.8b01176
   for GFN1-xTB:
   * S. Grimme, C. Bannwarth, P. Shushkov, J. Chem. Theory Comput., 2017,
     13, 1989-2009. DOI: 10.1021/acs.jctc.7b00118
   for GFN0-xTB:
   * P. Pracht, E. Caldeweyher, S. Ehlert, S. Grimme, ChemRxiv, 2019, preprint.
     DOI: 10.26434/chemrxiv.8326202.v1
   for GFN-FF:
   * S. Spicher and S. Grimme, Angew. Chem. Int. Ed., 2020, 59, 15665-15673.
     DOI: 10.1002/anie.202004239
   
   for ALPB and GBSA implicit solvation:
   * S. Ehlert, M. Stahn, S. Spicher, S. Grimme, J. Chem. Theory Comput.,
     2021, 17, 4250-4261. DOI: 10.1021/acs.jctc.1c00471
   
   for DFT-D4:
   * E. Caldeweyher, C. Bannwarth and S. Grimme, J. Chem. Phys., 2017,
     147, 034112. DOI: 10.1063/1.4993215
   * E. Caldeweyher, S. Ehlert, A. Hansen, H. Neugebauer, S. Spicher,
     C. Bannwarth and S. Grimme, J. Chem. Phys., 2019, 150, 154122.
     DOI: 10.1063/1.5090222
   * E. Caldeweyher, J.-M. Mewes, S. Ehlert and S. Grimme, Phys. Chem. Chem. Phys.
     2020, 22, 8499-8512. DOI: 10.1039/D0CP00502A
   
   for sTDA-xTB:
   * S. Grimme and C. Bannwarth, J. Chem. Phys., 2016, 145, 054103.
     DOI: 10.1063/1.4959605
   
   in the mass-spec context:
   * V. Asgeirsson, C. Bauer and S. Grimme, Chem. Sci., 2017, 8, 4879.
     DOI: 10.1039/c7sc00601b
   * J. Koopman and S. Grimme, ACS Omega 2019, 4, 12, 15120-15133.
     DOI: 10.1021/acsomega.9b02011
   
   for metadynamics refer to:
   * S. Grimme, J. Chem. Theory Comput., 2019, 155, 2847-2862
     DOI: 10.1021/acs.jctc.9b00143
   
   for SPH calculations refer to:
   * S. Spicher and S. Grimme, J. Chem. Theory Comput., 2021, 17, 1701-1714
     DOI: 10.1021/acs.jctc.0c01306
   
   with help from (in alphabetical order)
   P. Atkinson, C. Bannwarth, F. Bohle, G. Brandenburg, E. Caldeweyher
   M. Checinski, S. Dohm, S. Ehlert, S. Ehrlich, I. Gerasimov, C. Hölzer
   A. Katbashev, J. Koopman, C. Lavigne, S. Lehtola, F. März, M. Müller,
   F. Musil, H. Neugebauer, J. Pisarek, C. Plett, P. Pracht, F. Pultar,
   J. Seibert, P. Shushkov, S. Spicher, M. Stahn, M. Steiner, T. Strunk,
   J. Stückrath, T. Rose, and J. Unsleber
   
 * started run on 2025/05/23 at 12:05:45.679     

           -------------------------------------------------
          |                Calculation Setup                |
           -------------------------------------------------

          program call               : /gpfs/fs1/home/copan/code/autode-practice/.pixi/envs/default/bin/xtb path_opt4_xtb.xyz --chrg 0 --uhf 1 --opt --input xcontrol_path_opt4_xtb
          hostname                   : csed-0029
          coordinate file            : path_opt4_xtb.xyz
          omp threads                :                     8

   ID    Z sym.   atoms
    1    8 O      1, 2
    2    6 C      3-7
    3    1 H      8-14
constraining bond 2 6 to    2.3655000 Å, actual value:    2.4522067 Å
constraining bond 1 2 to    2.0882000 Å, actual value:    1.7882029 Å

molecular fragmentation (1/2 indicates fragments):
12222221222222
# atoms in fragment 1/2:     2    12
 fragment masses (1/2) :       17.01       82.10
CMA distance (Bohr)    :   5.732
constraining FC (au)   :  2.0000

           -------------------------------------------------
          |                 G F N 2 - x T B                 |
           -------------------------------------------------

        Reference                      10.1021/acs.jctc.8b01176
      * Hamiltonian:
        H0-scaling (s, p, d)           1.850000    2.230000    2.230000
        zeta-weighting                 0.500000
      * Dispersion:
        s8                             2.700000
        a1                             0.520000
        a2                             5.000000
        s9                             5.000000
      * Repulsion:
        kExp                           1.500000    1.000000
        rExp                           1.000000
      * Coulomb:
        alpha                          2.000000
        third order                    shell-resolved
        anisotropic                    true
        a3                             3.000000
        a5                             4.000000
        cn-shift                       1.200000
        cn-exp                         4.000000
        max-rad                        5.000000


          ...................................................
          :                      SETUP                      :
          :.................................................:
          :  # basis functions                  35          :
          :  # atomic orbitals                  35          :
          :  # shells                           21          :
          :  # electrons                        39          :
          :  max. iterations                   250          :
          :  Hamiltonian                  GFN2-xTB          :
          :  restarted?                      false          :
          :  GBSA solvation                  false          :
          :  PC potential                    false          :
          :  electronic temp.          300.0000000     K    :
          :  accuracy                    1.0000000          :
          :  -> integral cutoff          0.2500000E+02      :
          :  -> integral neglect         0.1000000E-07      :
          :  -> SCF convergence          0.1000000E-05 Eh   :
          :  -> wf. convergence          0.1000000E-03 e    :
          :  Broyden damping             0.4000000          :
          ...................................................

 iter      E             dE          RMSdq      gap      omega  full diag
   1    -22.4170846 -0.224171E+02  0.421E+00    3.38       0.0  T
   2    -22.4650834 -0.479988E-01  0.229E+00    1.83       1.0  T
   3    -22.4664068 -0.132345E-02  0.125E+00    2.66       1.0  T
   4    -22.4683642 -0.195737E-02  0.396E-01    2.34       1.0  T
   5    -22.4701827 -0.181852E-02  0.110E-01    2.33       1.0  T
   6    -22.4702353 -0.526167E-04  0.581E-02    2.34       1.0  T
   7    -22.4702430 -0.768489E-05  0.210E-02    2.33       1.3  T
   8    -22.4702442 -0.114766E-05  0.819E-03    2.33       3.3  T
   9    -22.4702444 -0.226642E-06  0.344E-03    2.33       7.8  T
  10    -22.4702444 -0.285783E-07  0.100E-03    2.33      26.6  T
  11    -22.4702444 -0.238376E-08  0.436E-04    2.33      61.3  T
  12    -22.4702444 -0.434170E-09  0.123E-04    2.33     217.7  T

   *** convergence criteria satisfied after 12 iterations ***

         #    Occupation            Energy/Eh            Energy/eV
      -------------------------------------------------------------
         1        2.0000           -0.7397369             -20.1293
       ...           ...                  ...                  ...
        14        2.0000           -0.4825749             -13.1315
        15        2.0000           -0.4781401             -13.0109
        16        2.0000           -0.4625490             -12.5866
        17        2.0000           -0.4465513             -12.1513
        18        2.0000           -0.4219281             -11.4812
        19        2.0000           -0.3931344             -10.6977
        20        1.0000           -0.3202199              -8.7136 (HOMO)
        21                         -0.2345899              -6.3835 (LUMO)
        22                         -0.0972480              -2.6463
        23                          0.0523115               1.4235
        24                          0.0746995               2.0327
        25                          0.0857479               2.3333
       ...                                ...                  ...
        35                          0.6300020              17.1432
      -------------------------------------------------------------
                  HL-Gap            0.0856300 Eh            2.3301 eV
             Fermi-level           -0.3170410 Eh           -8.6271 eV

 SCC (total)                   0 d,  0 h,  0 min,  0.010 sec
 SCC setup                      ...        0 min,  0.000 sec (  2.624%)
 Dispersion                     ...        0 min,  0.000 sec (  1.102%)
 classical contributions        ...        0 min,  0.000 sec (  1.631%)
 integral evaluation            ...        0 min,  0.000 sec (  4.087%)
 iterations                     ...        0 min,  0.008 sec ( 79.265%)
 molecular gradient             ...        0 min,  0.001 sec (  8.967%)
 printout                       ...        0 min,  0.000 sec (  2.084%)

         :::::::::::::::::::::::::::::::::::::::::::::::::::::
         ::                     SUMMARY                     ::
         :::::::::::::::::::::::::::::::::::::::::::::::::::::
         :: total energy             -21.513487887779 Eh    ::
         :: gradient norm              3.730668630136 Eh/a0 ::
         :: HOMO-LUMO gap              2.330110630204 eV    ::
         ::.................................................::
         :: SCC energy               -22.470244428960 Eh    ::
         :: -> isotropic ES            0.051852434925 Eh    ::
         :: -> anisotropic ES         -0.005696496529 Eh    ::
         :: -> anisotropic XC          0.004553204754 Eh    ::
         :: -> dispersion             -0.008477166617 Eh    ::
         :: repulsion energy           0.260264131186 Eh    ::
         :: add. restraining           0.696474095082 Eh    ::
         :: total charge               0.000000000000 e     ::
         :::::::::::::::::::::::::::::::::::::::::::::::::::::

      ----------------------------------------------------------- 
     |                   =====================                   |
     |                        A N C O P T                        |
     |                   =====================                   |
     |               Approximate Normal Coordinate               |
     |                Rational Function Optimizer                |
      ----------------------------------------------------------- 

          ...................................................
          :                      SETUP                      :
          :.................................................:
          :   optimization level            normal          :
          :   max. optcycles                   200          :
          :   ANC micro-cycles                  20          :
          :   degrees of freedom                36          :
          :.................................................:
          :   RF solver                   davidson          :
          :   write xtbopt.log                true          :
          :   linear?                        false          :
          :   energy convergence         0.5000000E-05 Eh   :
          :   grad. convergence          0.1000000E-02 Eh/α :
          :   maxmium RF displ.          1.0000000          :
          :   Hlow (freq-cutoff)         0.1000000E-01      :
          :   Hmax (freq-cutoff)         5.0000000          :
          :   S6 in model hess.         20.0000000          :
          ...................................................

generating ANC from model Hessian ...
Using Lindh-Hessian (1995)
 Shifting diagonal of input Hessian by    1.0451132025653584     
 Lowest  eigenvalues of input Hessian
    0.010000    0.288421    0.000000    0.000000    0.000000    0.000000
    0.000000    0.000000    1.052922    1.066277    1.067915    1.076371
    1.090111    1.102939    1.107495    1.119568    1.125939    1.142140
 Highest eigenvalues
    2.460408    2.641482    2.840028    2.976153    6.072614   13.233546


........................................................................
.............................. CYCLE    1 ..............................
........................................................................

 iter      E             dE          RMSdq      gap      omega  full diag
   1    -22.4702444 -0.224702E+02  0.442E-05    2.33       0.0  T
   2    -22.4702444 -0.133582E-11  0.261E-05    2.33    1025.6  T
   3    -22.4702444  0.195399E-12  0.992E-06    2.33    2695.4  T
     SCC iter.                  ...        0 min,  0.002 sec
     gradient                   ...        0 min,  0.001 sec
 * total energy  :   -21.5134879 Eh     change       -0.3746692E-10 Eh
   gradient norm :     3.7306684 Eh/α   predicted     0.0000000E+00 (-100.00%)
   displ. norm   :     0.5351253 α      lambda       -0.1994519E+01
   maximum displ.:     0.5017588 α      in ANC's #35, #36, #26, ...

........................................................................
.............................. CYCLE    2 ..............................
........................................................................

 iter      E             dE          RMSdq      gap      omega  full diag
   1    -22.4454463 -0.224454E+02  0.109E+00    3.82       0.0  T
   2    -22.4474508 -0.200447E-02  0.110E+00    2.54       1.0  T
   3    -22.4600677 -0.126169E-01  0.449E-01    3.20       1.0  T
   4    -22.4583850  0.168263E-02  0.367E-01    3.54       1.0  T
   5    -22.4607757 -0.239067E-02  0.623E-02    3.32       1.0  T
   6    -22.4607903 -0.146050E-04  0.435E-02    3.32       1.0  T
   7    -22.4608104 -0.201254E-04  0.139E-02    3.34       1.9  T
   8    -22.4608076  0.287424E-05  0.168E-02    3.35       1.6  T
   9    -22.4608116 -0.401915E-05  0.546E-03    3.35       4.9  T
  10    -22.4608120 -0.438772E-06  0.125E-03    3.34      21.4  T
  11    -22.4608120 -0.204247E-07  0.233E-04    3.34     114.9  T
  12    -22.4608120 -0.178822E-09  0.133E-04    3.34     200.5  T
     SCC iter.                  ...        0 min,  0.006 sec
     gradient                   ...        0 min,  0.001 sec
 * total energy  :   -21.9397976 Eh     change       -0.4263097E+00 Eh
   gradient norm :     2.4652433 Eh/α   predicted    -0.1282834E+01 ( 200.92%)
   displ. norm   :     0.2359795 α      lambda       -0.5199644E+00
   maximum displ.:     0.1945558 α      in ANC's #35, #1, #36, ...

........................................................................
.............................. CYCLE    3 ..............................
........................................................................

 iter      E             dE          RMSdq      gap      omega  full diag
   1    -22.4703632 -0.224704E+02  0.498E-01    2.97       0.0  T
   2    -22.4712835 -0.920364E-03  0.375E-01    3.42       1.0  T
   3    -22.4725713 -0.128778E-02  0.161E-01    3.20       1.0  T
   4    -22.4725688  0.254525E-05  0.605E-02    3.27       1.0  T
   5    -22.4726104 -0.416193E-04  0.225E-02    3.25       1.2  T
   6    -22.4726156 -0.520895E-05  0.725E-03    3.24       3.7  T
   7    -22.4726156 -0.157601E-07  0.282E-03    3.23       9.5  T
   8    -22.4726157 -0.807786E-07  0.884E-04    3.24      30.2  T
   9    -22.4726157 -0.340737E-09  0.323E-04    3.24      82.7  T
     SCC iter.                  ...        0 min,  0.005 sec
     gradient                   ...        0 min,  0.001 sec
 * total energy  :   -22.2058499 Eh     change       -0.2660523E+00 Eh
   gradient norm :     0.1173527 Eh/α   predicted    -0.2744596E+00 (   3.16%)
   displ. norm   :     0.7045176 α      lambda       -0.1586968E-01
   maximum displ.:     0.7025749 α      in ANC's #1, #35, #2, ...

........................................................................
.............................. CYCLE    4 ..............................
........................................................................

 iter      E             dE          RMSdq      gap      omega  full diag
   1    -22.4494097 -0.224494E+02  0.708E-01    2.81       0.0  T
   2    -22.4497098 -0.300147E-03  0.447E-01    2.87       1.0  T
   3    -22.4494621  0.247755E-03  0.211E-01    2.73       1.0  T
   4    -22.4498101 -0.348015E-03  0.594E-02    2.82       1.0  T
   5    -22.4498412 -0.310567E-04  0.280E-02    2.82       1.0  T
   6    -22.4498441 -0.297090E-05  0.127E-02    2.81       2.1  T
   7    -22.4498445 -0.362676E-06  0.476E-03    2.82       5.6  T
   8    -22.4498446 -0.118564E-06  0.126E-03    2.82      21.2  T
   9    -22.4498446 -0.497754E-08  0.504E-04    2.82      53.1  T
  10    -22.4498446 -0.486221E-09  0.233E-04    2.82     114.8  T
     SCC iter.                  ...        0 min,  0.005 sec
     gradient                   ...        0 min,  0.001 sec
 * total energy  :   -22.1974962 Eh     change        0.8353753E-02 Eh
   gradient norm :     0.2456090 Eh/α   predicted    -0.1187325E-01 (-242.13%)
   displ. norm   :     0.3858247 α      lambda       -0.3197825E-01
   maximum displ.:     0.3841561 α      in ANC's #1, #36, #2, ...

........................................................................
.............................. CYCLE    5 ..............................
........................................................................

 iter      E             dE          RMSdq      gap      omega  full diag
   1    -22.4706963 -0.224707E+02  0.411E-01    3.02       0.0  T
   2    -22.4708005 -0.104198E-03  0.255E-01    2.99       1.0  T
   3    -22.4707404  0.601073E-04  0.111E-01    3.08       1.0  T
   4    -22.4708305 -0.900558E-04  0.264E-02    3.02       1.0  T
   5    -22.4708351 -0.462150E-05  0.140E-02    3.03       1.9  T
   6    -22.4708359 -0.789275E-06  0.755E-03    3.03       3.5  T
   7    -22.4708361 -0.257211E-06  0.190E-03    3.03      14.1  T
   8    -22.4708361 -0.818820E-08  0.741E-04    3.03      36.1  T
   9    -22.4708361 -0.182943E-08  0.316E-04    3.03      84.5  T
     SCC iter.                  ...        0 min,  0.005 sec
     gradient                   ...        0 min,  0.001 sec
 * total energy  :   -22.2069278 Eh     change       -0.9431628E-02 Eh
   gradient norm :     0.2043444 Eh/α   predicted    -0.1836928E-01 (  94.76%)
   displ. norm   :     0.1076191 α      lambda       -0.5801471E-02
   maximum displ.:     0.1006234 α      in ANC's #1, #36, #35, ...

........................................................................
.............................. CYCLE    6 ..............................
........................................................................

 iter      E             dE          RMSdq      gap      omega  full diag
   1    -22.4729362 -0.224729E+02  0.128E-01    3.17       0.0  T
   2    -22.4729564 -0.202244E-04  0.774E-02    3.18       1.0  T
   3    -22.4729539  0.253153E-05  0.408E-02    3.17       1.0  T
   4    -22.4729600 -0.608755E-05  0.145E-02    3.18       1.8  T
   5    -22.4729622 -0.228254E-05  0.460E-03    3.17       5.8  T
   6    -22.4729623 -0.211710E-07  0.173E-03    3.17      15.4  T
   7    -22.4729623 -0.541959E-08  0.564E-04    3.17      47.4  T
   8    -22.4729623 -0.202429E-08  0.266E-04    3.17     100.6  T
     SCC iter.                  ...        0 min,  0.004 sec
     gradient                   ...        0 min,  0.001 sec
 * total energy  :   -22.2100732 Eh     change       -0.3145407E-02 Eh
   gradient norm :     0.0248783 Eh/α   predicted    -0.2934328E-02 (  -6.71%)
   displ. norm   :     0.0250741 α      lambda       -0.5203952E-03
   maximum displ.:     0.0133131 α      in ANC's #1, #19, #26, ...

........................................................................
.............................. CYCLE    7 ..............................
........................................................................

 iter      E             dE          RMSdq      gap      omega  full diag
   1    -22.4728262 -0.224728E+02  0.474E-02    3.17       0.0  T
   2    -22.4728351 -0.890248E-05  0.327E-02    3.19       1.0  T
   3    -22.4728412 -0.610605E-05  0.168E-02    3.18       1.6  T
   4    -22.4728411  0.187157E-06  0.756E-03    3.18       3.5  T
   5    -22.4728416 -0.537488E-06  0.219E-03    3.18      12.2  T
   6    -22.4728417 -0.518930E-07  0.695E-04    3.18      38.5  T
   7    -22.4728417 -0.248487E-09  0.264E-04    3.18     101.1  T
     SCC iter.                  ...        0 min,  0.004 sec
     gradient                   ...        0 min,  0.001 sec
 * total energy  :   -22.2105072 Eh     change       -0.4340099E-03 Eh
   gradient norm :     0.0177210 Eh/α   predicted    -0.2603621E-03 ( -40.01%)
   displ. norm   :     0.0779143 α      lambda       -0.1047125E-02
   maximum displ.:     0.0507721 α      in ANC's #1, #19, #17, ...

........................................................................
.............................. CYCLE    8 ..............................
........................................................................

 iter      E             dE          RMSdq      gap      omega  full diag
   1    -22.4730193 -0.224730E+02  0.119E-01    3.16       0.0  T
   2    -22.4730574 -0.380813E-04  0.832E-02    3.20       1.0  T
   3    -22.4730888 -0.313572E-04  0.457E-02    3.18       1.0  T
   4    -22.4730890 -0.233029E-06  0.187E-02    3.18       1.4  T
   5    -22.4730928 -0.377304E-05  0.410E-03    3.18       6.5  T
   6    -22.4730929 -0.137750E-06  0.171E-03    3.18      15.7  T
   7    -22.4730929 -0.149352E-08  0.454E-04    3.18      58.9  T
   8    -22.4730929 -0.777074E-09  0.181E-04    3.18     147.8  T
     SCC iter.                  ...        0 min,  0.004 sec
     gradient                   ...        0 min,  0.001 sec
 * total energy  :   -22.2111170 Eh     change       -0.6098004E-03 Eh
   gradient norm :     0.0148386 Eh/α   predicted    -0.5267416E-03 ( -13.62%)
   displ. norm   :     0.0282767 α      lambda       -0.1578485E-03
   maximum displ.:     0.0190062 α      in ANC's #1, #19, #17, ...

........................................................................
.............................. CYCLE    9 ..............................
........................................................................

 iter      E             dE          RMSdq      gap      omega  full diag
   1    -22.4733313 -0.224733E+02  0.340E-02    3.16       0.0  T
   2    -22.4733322 -0.956762E-06  0.232E-02    3.17       1.2  T
   3    -22.4733332 -0.928011E-06  0.143E-02    3.17       1.9  T
   4    -22.4733339 -0.784344E-06  0.361E-03    3.17       7.4  T
   5    -22.4733341 -0.158243E-06  0.765E-04    3.17      35.0  T
   6    -22.4733341 -0.277467E-10  0.310E-04    3.17      86.3  T
     SCC iter.                  ...        0 min,  0.003 sec
     gradient                   ...        0 min,  0.001 sec
 * total energy  :   -22.2112432 Eh     change       -0.1262248E-03 Eh
   gradient norm :     0.0121331 Eh/α   predicted    -0.7898674E-04 ( -37.42%)
   displ. norm   :     0.0528073 α      lambda       -0.2829477E-03
   maximum displ.:     0.0349434 α      in ANC's #1, #19, #2, ...

........................................................................
.............................. CYCLE   10 ..............................
........................................................................

 iter      E             dE          RMSdq      gap      omega  full diag
   1    -22.4736883 -0.224737E+02  0.586E-02    3.12       0.0  T
   2    -22.4736903 -0.200668E-05  0.379E-02    3.14       1.0  T
   3    -22.4736880  0.233632E-05  0.246E-02    3.13       1.1  T
   4    -22.4736926 -0.460976E-05  0.470E-03    3.13       5.7  T
   5    -22.4736928 -0.235126E-06  0.140E-03    3.14      19.1  T
   6    -22.4736928 -0.512481E-08  0.802E-04    3.14      33.3  T
   7    -22.4736928 -0.165283E-09  0.240E-04    3.14     111.5  T
     SCC iter.                  ...        0 min,  0.004 sec
     gradient                   ...        0 min,  0.001 sec
 * total energy  :   -22.2114345 Eh     change       -0.1912605E-03 Eh
   gradient norm :     0.0137378 Eh/α   predicted    -0.1418681E-03 ( -25.82%)
   displ. norm   :     0.0363404 α      lambda       -0.1574277E-03
   maximum displ.:     0.0232279 α      in ANC's #1, #4, #5, ...

........................................................................
.............................. CYCLE   11 ..............................
........................................................................

 iter      E             dE          RMSdq      gap      omega  full diag
   1    -22.4739392 -0.224739E+02  0.384E-02    3.11       0.0  T
   2    -22.4739410 -0.171915E-05  0.233E-02    3.12       1.1  T
   3    -22.4739408  0.149817E-06  0.889E-03    3.12       3.0  T
   4    -22.4739411 -0.279860E-06  0.250E-03    3.12      10.7  T
   5    -22.4739411 -0.489197E-07  0.111E-03    3.12      24.1  T
   6    -22.4739412 -0.872551E-08  0.549E-04    3.12      48.7  T
   7    -22.4739412 -0.341316E-09  0.144E-04    3.12     186.0  T
     SCC iter.                  ...        0 min,  0.004 sec
     gradient                   ...        0 min,  0.001 sec
 * total energy  :   -22.2115518 Eh     change       -0.1173396E-03 Eh
   gradient norm :     0.0132245 Eh/α   predicted    -0.7881682E-04 ( -32.83%)
   displ. norm   :     0.0439646 α      lambda       -0.1735904E-03
   maximum displ.:     0.0282414 α      in ANC's #1, #18, #5, ...

........................................................................
.............................. CYCLE   12 ..............................
........................................................................

 iter      E             dE          RMSdq      gap      omega  full diag
   1    -22.4743067 -0.224743E+02  0.444E-02    3.10       0.0  T
   2    -22.4743098 -0.313009E-05  0.270E-02    3.10       1.0  T
   3    -22.4743092  0.550908E-06  0.168E-02    3.11       1.6  T
   4    -22.4743104 -0.112765E-05  0.591E-03    3.10       4.5  T
   5    -22.4743108 -0.408770E-06  0.139E-03    3.10      19.3  T
   6    -22.4743108 -0.959453E-08  0.725E-04    3.10      36.9  T
   7    -22.4743108 -0.545803E-09  0.311E-04    3.10      85.9  T
     SCC iter.                  ...        0 min,  0.004 sec
     gradient                   ...        0 min,  0.001 sec
 * total energy  :   -22.2116776 Eh     change       -0.1257785E-03 Eh
   gradient norm :     0.0111581 Eh/α   predicted    -0.8696459E-04 ( -30.86%)
   displ. norm   :     0.0540186 α      lambda       -0.1741116E-03
   maximum displ.:     0.0375928 α      in ANC's #1, #18, #5, ...

........................................................................
.............................. CYCLE   13 ..............................
........................................................................

 iter      E             dE          RMSdq      gap      omega  full diag
   1    -22.4747077 -0.224747E+02  0.496E-02    3.10       0.0  T
   2    -22.4747108 -0.304266E-05  0.309E-02    3.10       1.0  T
   3    -22.4747101  0.628759E-06  0.214E-02    3.11       1.2  T
   4    -22.4747124 -0.225274E-05  0.617E-03    3.10       4.3  T
   5    -22.4747128 -0.409267E-06  0.147E-03    3.10      18.1  T
   6    -22.4747128 -0.761977E-08  0.855E-04    3.10      31.2  T
   7    -22.4747128 -0.114851E-08  0.304E-04    3.10      88.0  T
     SCC iter.                  ...        0 min,  0.004 sec
     gradient                   ...        0 min,  0.001 sec
 * total energy  :   -22.2118123 Eh     change       -0.1346336E-03 Eh
   gradient norm :     0.0123843 Eh/α   predicted    -0.8731144E-04 ( -35.15%)
   displ. norm   :     0.0948140 α      lambda       -0.2783189E-03
   maximum displ.:     0.0703137 α      in ANC's #1, #18, #5, ...

........................................................................
.............................. CYCLE   14 ..............................
........................................................................

 iter      E             dE          RMSdq      gap      omega  full diag
   1    -22.4750783 -0.224751E+02  0.806E-02    3.12       0.0  T
   2    -22.4750832 -0.485740E-05  0.504E-02    3.11       1.0  T
   3    -22.4750791  0.404926E-05  0.355E-02    3.12       1.0  T
   4    -22.4750871 -0.798707E-05  0.836E-03    3.12       3.2  T
   5    -22.4750878 -0.705379E-06  0.228E-03    3.12      11.7  T
   6    -22.4750878 -0.718942E-08  0.134E-03    3.12      20.0  T
   7    -22.4750878 -0.385809E-08  0.342E-04    3.12      78.2  T
   8    -22.4750878 -0.632649E-09  0.928E-05    3.12     287.9  T
     SCC iter.                  ...        0 min,  0.004 sec
     gradient                   ...        0 min,  0.001 sec
 * total energy  :   -22.2120138 Eh     change       -0.2015913E-03 Eh
   gradient norm :     0.0158437 Eh/α   predicted    -0.1404092E-03 ( -30.35%)
   displ. norm   :     0.0931229 α      lambda       -0.2836983E-03
   maximum displ.:     0.0696332 α      in ANC's #1, #18, #5, ...

........................................................................
.............................. CYCLE   15 ..............................
........................................................................

 iter      E             dE          RMSdq      gap      omega  full diag
   1    -22.4753123 -0.224753E+02  0.776E-02    3.14       0.0  T
   2    -22.4753154 -0.311775E-05  0.484E-02    3.13       1.0  T
   3    -22.4753108  0.458292E-05  0.335E-02    3.14       1.0  T
   4    -22.4753186 -0.778853E-05  0.721E-03    3.14       3.7  T
   5    -22.4753191 -0.506179E-06  0.217E-03    3.14      12.3  T
   6    -22.4753191 -0.157728E-08  0.102E-03    3.14      26.1  T
   7    -22.4753191 -0.291656E-08  0.172E-04    3.14     155.2  T
   8    -22.4753191 -0.160512E-09  0.852E-05    3.14     313.5  T
     SCC iter.                  ...        0 min,  0.004 sec
     gradient                   ...        0 min,  0.001 sec
 * total energy  :   -22.2122166 Eh     change       -0.2027696E-03 Eh
   gradient norm :     0.0177588 Eh/α   predicted    -0.1430817E-03 ( -29.44%)
   displ. norm   :     0.0678709 α      lambda       -0.2741892E-03
   maximum displ.:     0.0478451 α      in ANC's #1, #5, #18, ...

........................................................................
.............................. CYCLE   16 ..............................
........................................................................

 iter      E             dE          RMSdq      gap      omega  full diag
   1    -22.4755566 -0.224756E+02  0.599E-02    3.17       0.0  T
   2    -22.4755588 -0.223519E-05  0.356E-02    3.15       1.0  T
   3    -22.4755572  0.159682E-05  0.219E-02    3.16       1.2  T
   4    -22.4755599 -0.275151E-05  0.513E-03    3.16       5.2  T
   5    -22.4755602 -0.255305E-06  0.177E-03    3.16      15.1  T
   6    -22.4755602 -0.181569E-08  0.602E-04    3.16      44.4  T
   7    -22.4755602 -0.142219E-08  0.172E-04    3.16     155.6  T
     SCC iter.                  ...        0 min,  0.004 sec
     gradient                   ...        0 min,  0.001 sec
 * total energy  :   -22.2124047 Eh     change       -0.1880464E-03 Eh
   gradient norm :     0.0133907 Eh/α   predicted    -0.1377244E-03 ( -26.76%)
   displ. norm   :     0.0897190 α      lambda       -0.1981490E-03
   maximum displ.:     0.0701554 α      in ANC's #1, #5, #18, ...

........................................................................
.............................. CYCLE   17 ..............................
........................................................................

 iter      E             dE          RMSdq      gap      omega  full diag
   1    -22.4746783 -0.224747E+02  0.700E-02    3.15       0.0  T
   2    -22.4746789 -0.535154E-06  0.442E-02    3.15       1.0  T
   3    -22.4746758  0.309688E-05  0.171E-02    3.15       1.6  T
   4    -22.4746793 -0.357578E-05  0.297E-03    3.15       9.0  T
   5    -22.4746794 -0.174083E-07  0.181E-03    3.15      14.8  T
   6    -22.4746794 -0.456336E-08  0.465E-04    3.15      57.5  T
   7    -22.4746794 -0.177479E-08  0.156E-04    3.15     171.4  T
     SCC iter.                  ...        0 min,  0.004 sec
     gradient                   ...        0 min,  0.001 sec
 * total energy  :   -22.2125212 Eh     change       -0.1165332E-03 Eh
   gradient norm :     0.0252662 Eh/α   predicted    -0.9987416E-04 ( -14.30%)
   displ. norm   :     0.0405483 α      lambda       -0.2607150E-03
   maximum displ.:     0.0178843 α      in ANC's #1, #5, #14, ...

........................................................................
.............................. CYCLE   18 ..............................
........................................................................

 iter      E             dE          RMSdq      gap      omega  full diag
   1    -22.4747558 -0.224748E+02  0.488E-02    3.14       0.0  T
   2    -22.4747580 -0.226110E-05  0.277E-02    3.12       1.0  T
   3    -22.4747573  0.709494E-06  0.209E-02    3.13       1.3  T
   4    -22.4747598 -0.243136E-05  0.536E-03    3.13       5.0  T
   5    -22.4747600 -0.259618E-06  0.154E-03    3.13      17.3  T
   6    -22.4747600 -0.220339E-08  0.669E-04    3.13      40.0  T
   7    -22.4747600 -0.164387E-08  0.222E-04    3.13     120.2  T
     SCC iter.                  ...        0 min,  0.004 sec
     gradient                   ...        0 min,  0.001 sec
 * total energy  :   -22.2126251 Eh     change       -0.1038806E-03 Eh
   gradient norm :     0.0140338 Eh/α   predicted    -0.1305706E-03 (  25.69%)
   displ. norm   :     0.0622689 α      lambda       -0.1486101E-03
   maximum displ.:     0.0453744 α      in ANC's #1, #5, #18, ...

........................................................................
.............................. CYCLE   19 ..............................
........................................................................

 iter      E             dE          RMSdq      gap      omega  full diag
   1    -22.4738327 -0.224738E+02  0.496E-02    3.11       0.0  T
   2    -22.4738335 -0.738522E-06  0.310E-02    3.12       1.0  T
   3    -22.4738332  0.260522E-06  0.743E-03    3.11       3.6  T
   4    -22.4738336 -0.434087E-06  0.212E-03    3.11      12.6  T
   5    -22.4738336 -0.104749E-07  0.141E-03    3.11      19.0  T
   6    -22.4738336 -0.694110E-08  0.588E-04    3.11      45.4  T
   7    -22.4738336 -0.171284E-08  0.137E-04    3.11     195.4  T
     SCC iter.                  ...        0 min,  0.004 sec
     gradient                   ...        0 min,  0.001 sec
 * total energy  :   -22.2127426 Eh     change       -0.1175157E-03 Eh
   gradient norm :     0.0160324 Eh/α   predicted    -0.7459386E-04 ( -36.52%)
   displ. norm   :     0.1063090 α      lambda       -0.2534787E-03
   maximum displ.:     0.0716696 α      in ANC's #1, #5, #18, ...

........................................................................
.............................. CYCLE   20 ..............................
........................................................................

 iter      E             dE          RMSdq      gap      omega  full diag
   1    -22.4725021 -0.224725E+02  0.853E-02    3.08       0.0  T
   2    -22.4725046 -0.247059E-05  0.530E-02    3.09       1.0  T
   3    -22.4725041  0.451886E-06  0.112E-02    3.08       2.4  T
   4    -22.4725050 -0.882576E-06  0.364E-03    3.09       7.3  T
   5    -22.4725050 -0.334627E-07  0.229E-03    3.09      11.7  T
   6    -22.4725050 -0.164487E-07  0.122E-03    3.09      21.9  T
   7    -22.4725050 -0.760506E-08  0.215E-04    3.09     124.4  T
   8    -22.4725050 -0.976321E-10  0.852E-05    3.09     313.6  T
     SCC iter.                  ...        0 min,  0.004 sec
     gradient                   ...        0 min,  0.001 sec
 * total energy  :   -22.2128884 Eh     change       -0.1458397E-03 Eh
   gradient norm :     0.0198818 Eh/α   predicted    -0.1281700E-03 ( -12.12%)
   displ. norm   :     0.0192012 α      lambda       -0.1457287E-03
   maximum displ.:     0.0099139 α      in ANC's #14, #19, #26, ...
 * RMSD in coord.:     0.2605876 α      energy gain  -0.6994005E+00 Eh

generating ANC from model Hessian ...
Using Lindh-Hessian (1995)
 Shifting diagonal of input Hessian by    8.1592375703090532E-003
 Lowest  eigenvalues of input Hessian
    0.000000    0.000000    0.000000    0.000000    0.000000    0.000000
    0.010000    0.010996    0.011657    0.018660    0.029703    0.033813
    0.046622    0.065872    0.070150    0.081167    0.087927    0.104960
 Highest eigenvalues
    1.430064    1.577531    1.815076    1.934084    4.617110   12.380744


........................................................................
.............................. CYCLE   21 ..............................
........................................................................

 iter      E             dE          RMSdq      gap      omega  full diag
   1    -22.4731128 -0.224731E+02  0.264E-02    3.07       0.0  T
   2    -22.4731132 -0.377927E-06  0.156E-02    3.07       1.7  T
   3    -22.4731130  0.169510E-06  0.637E-03    3.07       4.2  T
   4    -22.4731132 -0.251354E-06  0.118E-03    3.07      22.7  T
   5    -22.4731133 -0.136882E-07  0.624E-04    3.07      42.8  T
   6    -22.4731133 -0.279236E-08  0.241E-04    3.07     110.9  T
     SCC iter.                  ...        0 min,  0.003 sec
     gradient                   ...        0 min,  0.001 sec
 * total energy  :   -22.2129861 Eh     change       -0.9769863E-04 Eh
   gradient norm :     0.0113891 Eh/α   predicted     0.0000000E+00 (-100.00%)
   displ. norm   :     0.1845735 α      lambda       -0.6183402E-03
   maximum displ.:     0.1608679 α      in ANC's #3, #1, #4, ...

........................................................................
.............................. CYCLE   22 ..............................
........................................................................

 iter      E             dE          RMSdq      gap      omega  full diag
   1    -22.4752671 -0.224753E+02  0.105E-01    3.10       0.0  T
   2    -22.4752725 -0.540642E-05  0.637E-02    3.08       1.0  T
   3    -22.4752648  0.762971E-05  0.372E-02    3.09       1.0  T
   4    -22.4752755 -0.106952E-04  0.924E-03    3.09       2.9  T
   5    -22.4752764 -0.824486E-06  0.304E-03    3.08       8.8  T
   6    -22.4752764 -0.743003E-08  0.105E-03    3.08      25.5  T
   7    -22.4752764 -0.345149E-08  0.372E-04    3.08      71.9  T
   8    -22.4752764 -0.368445E-09  0.145E-04    3.08     184.0  T
     SCC iter.                  ...        0 min,  0.004 sec
     gradient                   ...        0 min,  0.001 sec
 * total energy  :   -22.2134728 Eh     change       -0.4866884E-03 Eh
   gradient norm :     0.0188487 Eh/α   predicted    -0.3197047E-03 ( -34.31%)
   displ. norm   :     0.2552042 α      lambda       -0.5836272E-03
   maximum displ.:     0.2202139 α      in ANC's #3, #1, #2, ...

........................................................................
.............................. CYCLE   23 ..............................
........................................................................

 iter      E             dE          RMSdq      gap      omega  full diag
   1    -22.4770687 -0.224771E+02  0.135E-01    3.11       0.0  T
   2    -22.4770738 -0.513841E-05  0.822E-02    3.10       1.0  T
   3    -22.4770596  0.142225E-04  0.423E-02    3.11       1.0  T
   4    -22.4770769 -0.172805E-04  0.938E-03    3.10       2.8  T
   5    -22.4770776 -0.719799E-06  0.390E-03    3.10       6.8  T
   6    -22.4770776 -0.158413E-07  0.132E-03    3.10      20.2  T
   7    -22.4770776 -0.654396E-08  0.438E-04    3.10      61.0  T
   8    -22.4770776 -0.520277E-09  0.181E-04    3.10     147.4  T
     SCC iter.                  ...        0 min,  0.004 sec
     gradient                   ...        0 min,  0.001 sec
 * total energy  :   -22.2138008 Eh     change       -0.3279987E-03 Eh
   gradient norm :     0.0321475 Eh/α   predicted    -0.3108225E-03 (  -5.24%)
   displ. norm   :     0.1232779 α      lambda       -0.3139581E-03
   maximum displ.:     0.1075954 α      in ANC's #3, #1, #6, ...

........................................................................
.............................. CYCLE   24 ..............................
........................................................................

 iter      E             dE          RMSdq      gap      omega  full diag
   1    -22.4776608 -0.224777E+02  0.779E-02    3.11       0.0  T
   2    -22.4776652 -0.434779E-05  0.470E-02    3.10       1.0  T
   3    -22.4776638  0.136778E-05  0.240E-02    3.11       1.1  T
   4    -22.4776668 -0.298812E-05  0.407E-03    3.10       6.6  T
   5    -22.4776669 -0.168342E-06  0.155E-03    3.10      17.2  T
   6    -22.4776670 -0.629522E-08  0.848E-04    3.10      31.5  T
   7    -22.4776670 -0.237008E-08  0.237E-04    3.10     112.6  T
     SCC iter.                  ...        0 min,  0.004 sec
     gradient                   ...        0 min,  0.001 sec
 * total energy  :   -22.2140366 Eh     change       -0.2357858E-03 Eh
   gradient norm :     0.0161195 Eh/α   predicted    -0.1593630E-03 ( -32.41%)
   displ. norm   :     0.2759780 α      lambda       -0.3839885E-03
   maximum displ.:     0.2363653 α      in ANC's #3, #1, #2, ...

........................................................................
.............................. CYCLE   25 ..............................
........................................................................

 iter      E             dE          RMSdq      gap      omega  full diag
   1    -22.4766238 -0.224766E+02  0.159E-01    3.13       0.0  T
   2    -22.4766283 -0.444380E-05  0.970E-02    3.12       1.0  T
   3    -22.4766222  0.612039E-05  0.276E-02    3.13       1.0  T
   4    -22.4766299 -0.777400E-05  0.693E-03    3.12       3.9  T
   5    -22.4766302 -0.267922E-06  0.387E-03    3.12       6.9  T
   6    -22.4766302 -0.308360E-07  0.188E-03    3.12      14.2  T
   7    -22.4766302 -0.185355E-07  0.413E-04    3.12      64.7  T
   8    -22.4766302 -0.399488E-09  0.223E-04    3.12     120.1  T
     SCC iter.                  ...        0 min,  0.004 sec
     gradient                   ...        0 min,  0.001 sec
 * total energy  :   -22.2141552 Eh     change       -0.1185816E-03 Eh
   gradient norm :     0.0559507 Eh/α   predicted    -0.2066132E-03 (  74.24%)
   displ. norm   :     0.1256187 α      lambda       -0.6433298E-03
   maximum displ.:     0.0807838 α      in ANC's #3, #1, #2, ...

........................................................................
.............................. CYCLE   26 ..............................
........................................................................

 iter      E             dE          RMSdq      gap      omega  full diag
   1    -22.4768930 -0.224769E+02  0.939E-02    3.10       0.0  T
   2    -22.4768975 -0.450480E-05  0.573E-02    3.09       1.0  T
   3    -22.4768936  0.380998E-05  0.262E-02    3.11       1.0  T
   4    -22.4768984 -0.479887E-05  0.724E-03    3.10       3.7  T
   5    -22.4768990 -0.583551E-06  0.204E-03    3.10      13.1  T
   6    -22.4768990 -0.169727E-07  0.109E-03    3.10      24.5  T
   7    -22.4768990 -0.177602E-08  0.257E-04    3.10     104.2  T
   8    -22.4768990 -0.299231E-09  0.134E-04    3.10     200.1  T
     SCC iter.                  ...        0 min,  0.004 sec
     gradient                   ...        0 min,  0.001 sec
 * total energy  :   -22.2143447 Eh     change       -0.1895349E-03 Eh
   gradient norm :     0.0257020 Eh/α   predicted    -0.3267418E-03 (  72.39%)
   displ. norm   :     0.1151503 α      lambda       -0.2852118E-03
   maximum displ.:     0.0709438 α      in ANC's #1, #4, #3, ...

........................................................................
.............................. CYCLE   27 ..............................
........................................................................

 iter      E             dE          RMSdq      gap      omega  full diag
   1    -22.4783270 -0.224783E+02  0.610E-02    3.12       0.0  T
   2    -22.4783278 -0.792786E-06  0.365E-02    3.11       1.0  T
   3    -22.4783270  0.762075E-06  0.972E-03    3.11       2.7  T
   4    -22.4783280 -0.923749E-06  0.375E-03    3.11       7.1  T
   5    -22.4783280 -0.907534E-07  0.165E-03    3.11      16.2  T
   6    -22.4783281 -0.671347E-08  0.653E-04    3.11      40.9  T
   7    -22.4783281 -0.102815E-08  0.227E-04    3.11     117.9  T
     SCC iter.                  ...        0 min,  0.004 sec
     gradient                   ...        0 min,  0.001 sec
 * total energy  :   -22.2144795 Eh     change       -0.1347963E-03 Eh
   gradient norm :     0.0110796 Eh/α   predicted    -0.1444969E-03 (   7.20%)
   displ. norm   :     0.1073768 α      lambda       -0.1166006E-03
   maximum displ.:     0.0746510 α      in ANC's #3, #1, #2, ...

........................................................................
.............................. CYCLE   28 ..............................
........................................................................

 iter      E             dE          RMSdq      gap      omega  full diag
   1    -22.4776629 -0.224777E+02  0.754E-02    3.13       0.0  T
   2    -22.4776636 -0.695558E-06  0.467E-02    3.13       1.0  T
   3    -22.4776603  0.331719E-05  0.173E-02    3.13       1.5  T
   4    -22.4776640 -0.372246E-05  0.379E-03    3.13       7.1  T
   5    -22.4776641 -0.857167E-07  0.185E-03    3.13      14.4  T
   6    -22.4776641 -0.251774E-08  0.419E-04    3.13      63.8  T
   7    -22.4776641 -0.841716E-09  0.160E-04    3.13     166.6  T
     SCC iter.                  ...        0 min,  0.004 sec
     gradient                   ...        0 min,  0.001 sec
 * total energy  :   -22.2145336 Eh     change       -0.5405060E-04 Eh
   gradient norm :     0.0247412 Eh/α   predicted    -0.5897360E-04 (   9.11%)
   displ. norm   :     0.0535625 α      lambda       -0.1120131E-03
   maximum displ.:     0.0331872 α      in ANC's #3, #2, #5, ...

........................................................................
.............................. CYCLE   29 ..............................
........................................................................

 iter      E             dE          RMSdq      gap      omega  full diag
   1    -22.4780638 -0.224781E+02  0.366E-02    3.12       0.0  T
   2    -22.4780643 -0.478423E-06  0.225E-02    3.12       1.2  T
   3    -22.4780635  0.773698E-06  0.990E-03    3.12       2.7  T
   4    -22.4780644 -0.904402E-06  0.294E-03    3.12       9.1  T
   5    -22.4780645 -0.749274E-07  0.113E-03    3.12      23.6  T
   6    -22.4780645 -0.137438E-08  0.432E-04    3.12      61.9  T
   7    -22.4780645 -0.623722E-09  0.137E-04    3.12     195.7  T
     SCC iter.                  ...        0 min,  0.004 sec
     gradient                   ...        0 min,  0.001 sec
 * total energy  :   -22.2145913 Eh     change       -0.5775674E-04 Eh
   gradient norm :     0.0133662 Eh/α   predicted    -0.5616771E-04 (  -2.75%)
   displ. norm   :     0.0859560 α      lambda       -0.7067611E-04
   maximum displ.:     0.0669262 α      in ANC's #1, #3, #4, ...

........................................................................
.............................. CYCLE   30 ..............................
........................................................................

 iter      E             dE          RMSdq      gap      omega  full diag
   1    -22.4783719 -0.224784E+02  0.506E-02    3.13       0.0  T
   2    -22.4783725 -0.576520E-06  0.313E-02    3.13       1.0  T
   3    -22.4783722  0.277962E-06  0.673E-03    3.13       4.0  T
   4    -22.4783726 -0.396120E-06  0.229E-03    3.13      11.7  T
   5    -22.4783727 -0.138378E-07  0.150E-03    3.13      17.9  T
   6    -22.4783727 -0.925930E-08  0.461E-04    3.13      58.0  T
   7    -22.4783727 -0.108144E-08  0.871E-05    3.13     306.9  T
     SCC iter.                  ...        0 min,  0.004 sec
     gradient                   ...        0 min,  0.001 sec
 * total energy  :   -22.2146442 Eh     change       -0.5284801E-04 Eh
   gradient norm :     0.0075378 Eh/α   predicted    -0.3559858E-04 ( -32.64%)
   displ. norm   :     0.1212547 α      lambda       -0.6184039E-04
   maximum displ.:     0.0913425 α      in ANC's #1, #3, #2, ...

........................................................................
.............................. CYCLE   31 ..............................
........................................................................

 iter      E             dE          RMSdq      gap      omega  full diag
   1    -22.4780892 -0.224781E+02  0.735E-02    3.14       0.0  T
   2    -22.4780901 -0.941185E-06  0.456E-02    3.14       1.0  T
   3    -22.4780885  0.167145E-05  0.132E-02    3.14       2.0  T
   4    -22.4780904 -0.190698E-05  0.435E-03    3.14       6.1  T
   5    -22.4780905 -0.126941E-06  0.211E-03    3.14      12.7  T
   6    -22.4780905 -0.456652E-08  0.576E-04    3.14      46.4  T
   7    -22.4780905 -0.161639E-08  0.124E-04    3.14     215.0  T
     SCC iter.                  ...        0 min,  0.004 sec
     gradient                   ...        0 min,  0.001 sec
 * total energy  :   -22.2146792 Eh     change       -0.3503916E-04 Eh
   gradient norm :     0.0115248 Eh/α   predicted    -0.3137343E-04 ( -10.46%)
   displ. norm   :     0.0306761 α      lambda       -0.3788918E-04
   maximum displ.:     0.0175059 α      in ANC's #1, #4, #3, ...

........................................................................
.............................. CYCLE   32 ..............................
........................................................................

 iter      E             dE          RMSdq      gap      omega  full diag
   1    -22.4780085 -0.224780E+02  0.205E-02    3.14       0.0  T
   2    -22.4780087 -0.216336E-06  0.122E-02    3.14       2.2  T
   3    -22.4780086  0.121944E-06  0.527E-03    3.14       5.1  T
   4    -22.4780087 -0.179048E-06  0.102E-03    3.14      26.3  T
   5    -22.4780087 -0.817432E-08  0.529E-04    3.14      50.5  T
   6    -22.4780087 -0.125382E-08  0.269E-04    3.14      99.5  T
     SCC iter.                  ...        0 min,  0.003 sec
     gradient                   ...        0 min,  0.001 sec
 * total energy  :   -22.2146914 Eh     change       -0.1219650E-04 Eh
   gradient norm :     0.0094655 Eh/α   predicted    -0.1896313E-04 (  55.48%)
   displ. norm   :     0.0436859 α      lambda       -0.2198142E-04
   maximum displ.:     0.0297836 α      in ANC's #1, #2, #3, ...

........................................................................
.............................. CYCLE   33 ..............................
........................................................................

 iter      E             dE          RMSdq      gap      omega  full diag
   1    -22.4781223 -0.224781E+02  0.340E-02    3.14       0.0  T
   2    -22.4781225 -0.124198E-06  0.217E-02    3.14       1.2  T
   3    -22.4781214  0.102657E-05  0.957E-03    3.14       2.8  T
   4    -22.4781226 -0.114813E-05  0.169E-03    3.14      15.8  T
   5    -22.4781226 -0.109685E-07  0.933E-04    3.14      28.7  T
   6    -22.4781226 -0.742741E-09  0.969E-05    3.14     275.9  T
     SCC iter.                  ...        0 min,  0.003 sec
     gradient                   ...        0 min,  0.001 sec
 * total energy  :   -22.2147050 Eh     change       -0.1355162E-04 Eh
   gradient norm :     0.0026556 Eh/α   predicted    -0.1101200E-04 ( -18.74%)
   displ. norm   :     0.0177882 α      lambda       -0.5199569E-05
   maximum displ.:     0.0153481 α      in ANC's #2, #1, #9, ...

........................................................................
.............................. CYCLE   34 ..............................
........................................................................

 iter      E             dE          RMSdq      gap      omega  full diag
   1    -22.4782326 -0.224782E+02  0.157E-02    3.14       0.0  T
   2    -22.4782326 -0.296770E-07  0.998E-03    3.14       2.7  T
   3    -22.4782325  0.173030E-06  0.401E-03    3.14       6.7  T
   4    -22.4782327 -0.196076E-06  0.723E-04    3.14      37.0  T
   5    -22.4782327 -0.248895E-08  0.420E-04    3.14      63.6  T
     SCC iter.                  ...        0 min,  0.003 sec
     gradient                   ...        0 min,  0.001 sec
 * total energy  :   -22.2147085 Eh     change       -0.3511872E-05 Eh
   gradient norm :     0.0033853 Eh/α   predicted    -0.2599280E-05 ( -25.99%)
   displ. norm   :     0.0148136 α      lambda       -0.3350802E-05
   maximum displ.:     0.0110521 α      in ANC's #2, #1, #5, ...

........................................................................
.............................. CYCLE   35 ..............................
........................................................................

 iter      E             dE          RMSdq      gap      omega  full diag
   1    -22.4783071 -0.224783E+02  0.113E-02    3.14       0.0  T
   2    -22.4783071 -0.189191E-07  0.716E-03    3.14       3.7  T
   3    -22.4783070  0.468866E-07  0.223E-03    3.14      12.0  T
   4    -22.4783071 -0.541723E-07  0.620E-04    3.14      43.1  T
   5    -22.4783071 -0.257708E-08  0.310E-04    3.14      86.2  T
     SCC iter.                  ...        0 min,  0.003 sec
     gradient                   ...        0 min,  0.001 sec
 * total energy  :   -22.2147107 Eh     change       -0.2241681E-05 Eh
   gradient norm :     0.0021059 Eh/α   predicted    -0.1674436E-05 ( -25.30%)
   displ. norm   :     0.0148585 α      lambda       -0.1632714E-05
   maximum displ.:     0.0099584 α      in ANC's #1, #2, #5, ...

........................................................................
.............................. CYCLE   36 ..............................
........................................................................

 iter      E             dE          RMSdq      gap      omega  full diag
   1    -22.4782540 -0.224783E+02  0.979E-03    3.14       0.0  T
   2    -22.4782541 -0.106199E-07  0.629E-03    3.15       4.2  T
   3    -22.4782540  0.363460E-07  0.185E-03    3.14      14.4  T
   4    -22.4782541 -0.421692E-07  0.480E-04    3.15      55.6  T
   5    -22.4782541 -0.131805E-08  0.253E-04    3.15     105.5  T
     SCC iter.                  ...        0 min,  0.003 sec
     gradient                   ...        0 min,  0.001 sec
 * total energy  :   -22.2147117 Eh     change       -0.1001826E-05 Eh
   gradient norm :     0.0009271 Eh/α   predicted    -0.8174367E-06 ( -18.41%)
   displ. norm   :     0.0067297 α      lambda       -0.5457536E-06
   maximum displ.:     0.0047380 α      in ANC's #5, #2, #4, ...

   *** GEOMETRY OPTIMIZATION CONVERGED AFTER 36 ITERATIONS ***

------------------------------------------------------------------------
 total energy gain   :        -0.7012238 Eh     -440.0246 kcal/mol
 total RMSD          :         0.5358727 a0        0.2836 Å
 total power (kW/mol):       -51.1406363 (step)-8784.3833 (real)
------------------------------------------------------------------------

 ANCopt (total)                0 d,  0 h,  0 min,  0.210 sec
 optimizer setup                ...        0 min,  0.000 sec (  0.063%)
 model hessian                  ...        0 min,  0.006 sec (  2.826%)
 ANC generation                 ...        0 min,  0.001 sec (  0.334%)
 coordinate transformation      ...        0 min,  0.000 sec (  0.094%)
 single point calculation       ...        0 min,  0.188 sec ( 89.870%)
 optimization log               ...        0 min,  0.004 sec (  1.688%)
 hessian update                 ...        0 min,  0.000 sec (  0.191%)
 rational function              ...        0 min,  0.005 sec (  2.148%)

================
 final structure:
================
14
 xtb: 6.6.1 (8d0f1dd)
O           -2.34860170539201        0.41980757737521        1.66441648385130
O           -0.55261130721749       -0.21688651917690        0.81067333002799
C           -0.70422392415246        0.21841800378897       -0.49826645351084
C            0.14574195384261        0.94845990131210        0.46480868286581
C            1.51356940450432        0.41978797854387        0.30872100731462
C            1.39167296274134       -0.64009661347277       -0.47978422746259
C            0.15849106507161       -0.69330643468963       -1.32094189558972
H           -2.40963607149557       -0.23398897922173        2.36002648222043
H           -1.68517994296096        0.56534666610090       -0.78344163337452
H           -0.14549884544356        1.86348140011043        0.95353119119227
H            2.34586937667123        0.69599525041915        0.92535117437131
H            2.20336362255401       -1.32105437418669       -0.69314906611597
H            0.35546017569858       -0.33198473552647       -2.33187875032281
H           -0.26841676442128       -1.69387912137643       -1.38003632546786

 Bond Distances (Angstroems)
 ---------------------------
O1-H8=0.9566         O2-C3=1.3877         O2-C4=1.4019         C3-O2=1.3877         C3-C4=1.4775         C3-C7=1.5008         
C3-H9=1.0789         C4-O2=1.4019         C4-C3=1.4775         C4-C5=1.4747         C4-H10=1.0775        C5-C4=1.4747         
C5-C6=1.3266         C5-H11=1.0720        C6-C5=1.3266         C6-C7=1.4937         C6-H12=1.0808        C7-C3=1.5008         
C7-C6=1.4937         C7-H13=1.0915        C7-H14=1.0894        H8-O1=0.9566         H9-C3=1.0789         H10-C4=1.0775        
H11-C5=1.0720        H12-C6=1.0808        H13-C7=1.0915        H14-C7=1.0894        
 C  H  Rav=1.0817 sigma=0.0068  Rmin=1.0720  Rmax=1.0915     6
 C  C  Rav=1.4547 sigma=0.0648  Rmin=1.3266  Rmax=1.5008     5
 O  H  Rav=0.9566 sigma=0.0000  Rmin=0.9566  Rmax=0.9566     1
 O  C  Rav=1.3948 sigma=0.0071  Rmin=1.3877  Rmax=1.4019     2

 selected bond angles (degree)
 --------------------
C4-O2-C3= 63.96                C4-C3-O2= 58.49                C7-C3-O2=105.29                C7-C3-C4=109.07                
H9-C3-O2=116.71                H9-C3-C4=122.44                H9-C3-C7=124.97                C3-C4-O2= 57.55                
C5-C4-O2=100.96                C5-C4-C3=106.71                H10-C4-O2=117.35               H10-C4-C3=124.04               
H10-C4-C5=127.10               C6-C5-C4=105.31                H11-C5-C4=124.53               H11-C5-C6=128.25               
C7-C6-C5=116.04                H12-C6-C5=123.48               H12-C6-C7=119.11               C6-C7-C3= 98.29                
H13-C7-C3=114.23               H13-C7-C6=111.15               H14-C7-C3=111.25               H14-C7-C6=112.75               
H14-C7-H13=108.94              

 selected dihedral angles (degree)
 ---------------------------------
C7-C3-O2-C4=103.29            H9-C3-O2-C4=246.68            C5-C4-O2-C3=257.07            H10-C4-O2-C3=114.71           
O2-C4-C3-C7=263.38            O2-C4-C3-H9=103.60            C5-C4-C3-O2= 92.55            C5-C4-C3-C7=355.93            
C5-C4-C3-H9=196.14            H10-C4-C3-O2=256.85           H10-C4-C3-C7=160.23           H10-C4-C3-H9=  0.45           
C6-C5-C4-O2= 49.62            C6-C5-C4-C3=350.44            C6-C5-C4-H10=186.77           H11-C5-C4-O2=244.26           
H11-C5-C4-C3=185.09           H11-C5-C4-H10= 21.41          C7-C6-C5-C4= 20.94            C7-C6-C5-H11=185.57           
H12-C6-C5-C4=187.44           H12-C6-C5-H11=352.06          C6-C7-C3-O2=312.77            C6-C7-C3-C4= 14.17            
C6-C7-C3-H9=173.32            H13-C7-C3-O2=195.04           H13-C7-C3-C4=256.43           H13-C7-C3-H9= 55.58           
H14-C7-C3-O2= 71.20           H14-C7-C3-C4=132.59           H14-C7-C3-H9=291.75           C3-C7-C6-C5=337.55            
C3-C7-C6-H12=170.43           H13-C7-C6-C5= 97.62           H13-C7-C6-H12=290.50          H14-C7-C6-C5=220.27           
H14-C7-C6-H12= 53.15          

 CMA Distance (Angstroems)
 ---------------------------
R(CMA):  3.2297
           -------------------------------------------------
          |                Final Singlepoint                |
           -------------------------------------------------

          ...................................................
          :                      SETUP                      :
          :.................................................:
          :  # basis functions                  35          :
          :  # atomic orbitals                  35          :
          :  # shells                           21          :
          :  # electrons                        39          :
          :  max. iterations                   250          :
          :  Hamiltonian                  GFN2-xTB          :
          :  restarted?                      false          :
          :  GBSA solvation                  false          :
          :  PC potential                    false          :
          :  electronic temp.          300.0000000     K    :
          :  accuracy                    1.0000000          :
          :  -> integral cutoff          0.2500000E+02      :
          :  -> integral neglect         0.1000000E-07      :
          :  -> SCF convergence          0.1000000E-05 Eh   :
          :  -> wf. convergence          0.1000000E-03 e    :
          :  Broyden damping             0.4000000          :
          ...................................................

 iter      E             dE          RMSdq      gap      omega  full diag
   1    -22.4782541 -0.224783E+02  0.440E-05    3.15       0.0  T
   2    -22.4782541 -0.543565E-11  0.274E-05    3.15     977.0  T
   3    -22.4782541 -0.263256E-11  0.182E-05    3.15    1465.3  T

   *** convergence criteria satisfied after 3 iterations ***

         #    Occupation            Energy/Eh            Energy/eV
      -------------------------------------------------------------
         1        2.0000           -0.7416532             -20.1814
       ...           ...                  ...                  ...
        14        2.0000           -0.4862584             -13.2318
        15        2.0000           -0.4800951             -13.0641
        16        2.0000           -0.4608163             -12.5394
        17        2.0000           -0.4446291             -12.0990
        18        2.0000           -0.4190480             -11.4029
        19        2.0000           -0.3945847             -10.7372
        20        1.0000           -0.3566421              -9.7047 (HOMO)
        21                         -0.2410604              -6.5596 (LUMO)
        22                         -0.0935080              -2.5445
        23                          0.0627213               1.7067
        24                          0.0754338               2.0527
        25                          0.0899702               2.4482
       ...                                ...                  ...
        35                          0.6375669              17.3491
      -------------------------------------------------------------
                  HL-Gap            0.1155817 Eh            3.1451 eV
             Fermi-level           -0.3372323 Eh           -9.1766 eV

 SCC (total)                   0 d,  0 h,  0 min,  0.003 sec
 SCC setup                      ...        0 min,  0.000 sec (  2.523%)
 Dispersion                     ...        0 min,  0.000 sec (  1.511%)
 classical contributions        ...        0 min,  0.000 sec (  0.265%)
 integral evaluation            ...        0 min,  0.000 sec (  8.494%)
 iterations                     ...        0 min,  0.002 sec ( 58.760%)
 molecular gradient             ...        0 min,  0.001 sec ( 23.489%)
 printout                       ...        0 min,  0.000 sec (  4.114%)

         :::::::::::::::::::::::::::::::::::::::::::::::::::::
         ::                     SUMMARY                     ::
         :::::::::::::::::::::::::::::::::::::::::::::::::::::
         :: total energy             -22.214711715840 Eh    ::
         :: gradient norm              0.000928308058 Eh/a0 ::
         :: HOMO-LUMO gap              3.145139056943 eV    ::
         ::.................................................::
         :: SCC energy               -22.478254059718 Eh    ::
         :: -> isotropic ES            0.053439648573 Eh    ::
         :: -> anisotropic ES         -0.004764277582 Eh    ::
         :: -> anisotropic XC          0.004159216530 Eh    ::
         :: -> dispersion             -0.008348088774 Eh    ::
         :: repulsion energy           0.263259004701 Eh    ::
         :: add. restraining           0.000268621869 Eh    ::
         :: total charge              -0.000000000000 e     ::
         :::::::::::::::::::::::::::::::::::::::::::::::::::::

           -------------------------------------------------
          |                Property Printout                |
           -------------------------------------------------

    * Orbital Energies and Occupations

         #    Occupation            Energy/Eh            Energy/eV
      -------------------------------------------------------------
         1        2.0000           -0.7416532             -20.1814
       ...           ...                  ...                  ...
         8        2.0000           -0.5760719             -15.6757
         9        2.0000           -0.5464792             -14.8705
        10        2.0000           -0.5399109             -14.6917
        11        2.0000           -0.5239410             -14.2572
        12        2.0000           -0.4964969             -13.5104
        13        2.0000           -0.4891104             -13.3094
        14        2.0000           -0.4862584             -13.2318
        15        2.0000           -0.4800951             -13.0641
        16        2.0000           -0.4608163             -12.5394
        17        2.0000           -0.4446291             -12.0990
        18        2.0000           -0.4190480             -11.4029
        19        2.0000           -0.3945847             -10.7372
        20        1.0000           -0.3566421              -9.7047 (HOMO)
        21                         -0.2410604              -6.5596 (LUMO)
        22                         -0.0935080              -2.5445
        23                          0.0627213               1.7067
        24                          0.0754338               2.0527
        25                          0.0899702               2.4482
        26                          0.0940621               2.5596
        27                          0.1389267               3.7804
        28                          0.1762475               4.7959
        29                          0.2026611               5.5147
        30                          0.2118767               5.7655
        31                          0.2204170               5.9979
       ...                                ...                  ...
        35                          0.6375669              17.3491
      -------------------------------------------------------------
                  HL-Gap            0.1155817 Eh            3.1451 eV
             Fermi-level           -0.3372323 Eh           -9.1766 eV

     #   Z          covCN         q      C6AA      α(0)
     1   8 O        0.811    -0.544    24.818     6.678
     2   8 O        1.724    -0.192    17.202     5.600
     3   6 C        3.836     0.103    18.861     6.179
     4   6 C        3.855     0.098    18.927     6.188
     5   6 C        2.940    -0.044    29.092     8.846
     6   6 C        3.073    -0.018    28.369     8.733
     7   6 C        3.836    -0.069    21.791     6.641
     8   1 H        0.806     0.264     0.840     1.439
     9   1 H        0.926     0.080     1.976     2.198
    10   1 H        0.926     0.075     2.034     2.230
    11   1 H        0.926     0.060     2.194     2.316
    12   1 H        0.926     0.046     2.369     2.407
    13   1 H        0.924     0.063     2.161     2.299
    14   1 H        0.925     0.077     2.015     2.220

 Mol. C6AA /au·bohr⁶  :       1827.354538
 Mol. C8AA /au·bohr⁸  :      41435.950940
 Mol. α(0) /au        :         63.974858


Wiberg/Mayer (AO) data.
largest (>0.10) Wiberg bond orders for each atom

 ---------------------------------------------------------------------------
     #   Z sym  total        # sym  WBO       # sym  WBO       # sym  WBO
 ---------------------------------------------------------------------------
     1   8 O    1.342 --     8 H    0.929     2 O    0.316
     2   8 O    2.251 --     3 C    0.935     4 C    0.901     1 O    0.316
     3   6 C    3.890 --     7 C    0.998     9 H    0.957     4 C    0.947
                             2 O    0.935
     4   6 C    3.882 --     5 C    1.020    10 H    0.961     3 C    0.947
                             2 O    0.901
     5   6 C    3.981 --     6 C    1.877     4 C    1.020    11 H    0.967
     6   6 C    3.988 --     5 C    1.877     7 C    1.026    12 H    0.969
     7   6 C    3.995 --     6 C    1.026     3 C    0.998    14 H    0.955
                            13 H    0.951
     8   1 H    0.930 --     1 O    0.929
     9   1 H    0.994 --     3 C    0.957
    10   1 H    0.994 --     4 C    0.961
    11   1 H    0.996 --     5 C    0.967
    12   1 H    0.997 --     6 C    0.969
    13   1 H    0.996 --     7 C    0.951
    14   1 H    0.994 --     7 C    0.955
 ---------------------------------------------------------------------------

Topologies differ in total number of bonds
Writing topology from bond orders to xtbtopo.mol

molecular dipole:
                 x           y           z       tot (Debye)
 q only:        1.299      -0.146      -1.095
   full:        1.167      -0.263      -0.859       3.744
molecular quadrupole (traceless):
                xx          xy          yy          xz          yz          zz
 q only:       -4.709       2.950       2.732       4.786      -0.687       1.978
  q+dip:       -4.868       3.114       2.492       4.700       0.419       2.376
   full:       -4.891       3.367       2.115       3.990      -0.626       2.775

           -------------------------------------------------
          |                Geometry Summary                 |
           -------------------------------------------------

      molecular mass/u    :       99.1080746
   center of mass at/Å    :       -0.1607201       0.0588124       0.2050378
  moments of inertia/u·Å² :        0.8343724E+02   0.2381146E+03   0.2800514E+03
rotational constants/cm⁻¹ :        0.2020397E+00   0.7079630E-01   0.6019478E-01

 * 13 selected distances

     #   Z          #   Z                                           value/Å
     2   8 O        3   6 C                                       1.3877320
     2   8 O        4   6 C                                       1.4019102
     3   6 C        4   6 C                                       1.4774699
     4   6 C        5   6 C                                       1.4747236
     5   6 C        6   6 C                                       1.3266329
     3   6 C        7   6 C                                       1.5007711 (max)
     6   6 C        7   6 C                                       1.4936919
     3   6 C        9   1 H                                       1.0788695
     4   6 C       10   1 H                                       1.0774671
     5   6 C       11   1 H                                       1.0720292 (min)
     6   6 C       12   1 H                                       1.0807729
     7   6 C       13   1 H                                       1.0914869
     7   6 C       14   1 H                                       1.0894441

 * 3 distinct bonds (by element types)

   Z      Z             #   av. dist./Å        max./Å        min./Å
   1 H    6 C           6     1.0816783     1.0914869     1.0720292
   6 C    6 C           5     1.4546579     1.5007711     1.3266329
   6 C    8 O           2     1.3948211     1.4019102     1.3877320


optimized geometry written to: xtbopt.xyz


           -------------------------------------------------
          | TOTAL ENERGY              -22.214711715840 Eh   |
          | GRADIENT NORM               0.000928308058 Eh/α |
          | HOMO-LUMO GAP               3.145139056943 eV   |
           -------------------------------------------------

------------------------------------------------------------------------
 * finished run on 2025/05/23 at 12:05:45.912     
------------------------------------------------------------------------
 total:
 * wall-time:     0 d,  0 h,  0 min,  0.232 sec
 *  cpu-time:     0 d,  0 h,  0 min,  3.459 sec
 * ratio c/w:    14.918 speedup
 SCF:
 * wall-time:     0 d,  0 h,  0 min,  0.010 sec
 *  cpu-time:     0 d,  0 h,  0 min,  0.151 sec
 * ratio c/w:    14.750 speedup
 ANC optimizer:
 * wall-time:     0 d,  0 h,  0 min,  0.214 sec
 *  cpu-time:     0 d,  0 h,  0 min,  3.201 sec
 * ratio c/w:    14.967 speedup

