
                                 *****************
                                 * O   R   C   A *
                                 *****************

                                            #,                                       
                                            ###                                      
                                            ####                                     
                                            #####                                    
                                            ######                                   
                                           ########,                                 
                                     ,,################,,,,,                         
                               ,,#################################,,                 
                          ,,##########################################,,             
                       ,#########################################, ''#####,          
                    ,#############################################,,   '####,        
                  ,##################################################,,,,####,       
                ,###########''''           ''''###############################       
              ,#####''   ,,,,##########,,,,          '''####'''          '####       
            ,##' ,,,,###########################,,,                        '##       
           ' ,,###''''                  '''############,,,                           
         ,,##''                                '''############,,,,        ,,,,,,###''
      ,#''                                            '''#######################'''  
     '                                                          ''''####''''         
             ,#######,   #######,   ,#######,      ##                                
            ,#'     '#,  ##    ##  ,#'     '#,    #''#        ######   ,####,        
            ##       ##  ##   ,#'  ##            #'  '#       #        #'  '#        
            ##       ##  #######   ##           ,######,      #####,   #    #        
            '#,     ,#'  ##    ##  '#,     ,#' ,#      #,         ##   #,  ,#        
             '#######'   ##     ##  '#######'  #'      '#     #####' # '####'        



                  #######################################################
                  #                        -***-                        #
                  #          Department of theory and spectroscopy      #
                  #    Directorship and core code : Frank Neese         #
                  #        Max Planck Institute fuer Kohlenforschung    #
                  #                Kaiser Wilhelm Platz 1               #
                  #                 D-45470 Muelheim/Ruhr               #
                  #                      Germany                        #
                  #                                                     #
                  #                  All rights reserved                #
                  #                        -***-                        #
                  #######################################################


                         Program Version 5.0.4 -  RELEASE  -


 With contributions from (in alphabetic order):
   Daniel Aravena         : Magnetic Suceptibility
   Michael Atanasov       : Ab Initio Ligand Field Theory (pilot matlab implementation)
   Alexander A. Auer      : GIAO ZORA, VPT2 properties, NMR spectrum
   Ute Becker             : Parallelization
   Giovanni Bistoni       : ED, misc. LED, open-shell LED, HFLD
   Martin Brehm           : Molecular dynamics
   Dmytro Bykov           : SCF Hessian
   Vijay G. Chilkuri      : MRCI spin determinant printing, contributions to CSF-ICE
   Dipayan Datta          : RHF DLPNO-CCSD density
   Achintya Kumar Dutta   : EOM-CC, STEOM-CC
   Dmitry Ganyushin       : Spin-Orbit,Spin-Spin,Magnetic field MRCI
   Miquel Garcia          : C-PCM and meta-GGA Hessian, CC/C-PCM, Gaussian charge scheme
   Yang Guo               : DLPNO-NEVPT2, F12-NEVPT2, CIM, IAO-localization
   Andreas Hansen         : Spin unrestricted coupled pair/coupled cluster methods
   Benjamin Helmich-Paris : MC-RPA, TRAH-SCF, COSX integrals
   Lee Huntington         : MR-EOM, pCC
   Robert Izsak           : Overlap fitted RIJCOSX, COSX-SCS-MP3, EOM
   Marcus Kettner         : VPT2
   Christian Kollmar      : KDIIS, OOCD, Brueckner-CCSD(T), CCSD density, CASPT2, CASPT2-K
   Simone Kossmann        : Meta GGA functionals, TD-DFT gradient, OOMP2, MP2 Hessian
   Martin Krupicka        : Initial AUTO-CI
   Lucas Lang             : DCDCAS
   Marvin Lechner         : AUTO-CI (C++ implementation), FIC-MRCC
   Dagmar Lenk            : GEPOL surface, SMD
   Dimitrios Liakos       : Extrapolation schemes; Compound Job, initial MDCI parallelization
   Dimitrios Manganas     : Further ROCIS development; embedding schemes
   Dimitrios Pantazis     : SARC Basis sets
   Anastasios Papadopoulos: AUTO-CI, single reference methods and gradients
   Taras Petrenko         : DFT Hessian,TD-DFT gradient, ASA, ECA, R-Raman, ABS, FL, XAS/XES, NRVS
   Peter Pinski           : DLPNO-MP2, DLPNO-MP2 Gradient
   Christoph Reimann      : Effective Core Potentials
   Marius Retegan         : Local ZFS, SOC
   Christoph Riplinger    : Optimizer, TS searches, QM/MM, DLPNO-CCSD(T), (RO)-DLPNO pert. Triples
   Tobias Risthaus        : Range-separated hybrids, TD-DFT gradient, RPA, STAB
   Michael Roemelt        : Original ROCIS implementation
   Masaaki Saitow         : Open-shell DLPNO-CCSD energy and density
   Barbara Sandhoefer     : DKH picture change effects
   Avijit Sen             : IP-ROCIS
   Kantharuban Sivalingam : CASSCF convergence, NEVPT2, FIC-MRCI
   Bernardo de Souza      : ESD, SOC TD-DFT
   Georgi Stoychev        : AutoAux, RI-MP2 NMR, DLPNO-MP2 response
   Willem Van den Heuvel  : Paramagnetic NMR
   Boris Wezisla          : Elementary symmetry handling
   Frank Wennmohs         : Technical directorship


 We gratefully acknowledge several colleagues who have allowed us to
 interface, adapt or use parts of their codes:
   Stefan Grimme, W. Hujo, H. Kruse, P. Pracht,  : VdW corrections, initial TS optimization,
                  C. Bannwarth, S. Ehlert          DFT functionals, gCP, sTDA/sTD-DF
   Ed Valeev, F. Pavosevic, A. Kumar             : LibInt (2-el integral package), F12 methods
   Garnet Chan, S. Sharma, J. Yang, R. Olivares  : DMRG
   Ulf Ekstrom                                   : XCFun DFT Library
   Mihaly Kallay                                 : mrcc  (arbitrary order and MRCC methods)
   Jiri Pittner, Ondrej Demel                    : Mk-CCSD
   Frank Weinhold                                : gennbo (NPA and NBO analysis)
   Christopher J. Cramer and Donald G. Truhlar   : smd solvation model
   Lars Goerigk                                  : TD-DFT with DH, B97 family of functionals
   V. Asgeirsson, H. Jonsson                     : NEB implementation
   FAccTs GmbH                                   : IRC, NEB, NEB-TS, DLPNO-Multilevel, CI-OPT
                                                   MM, QMMM, 2- and 3-layer-ONIOM, Crystal-QMMM,
                                                   LR-CPCM, SF, NACMEs, symmetry and pop. for TD-DFT,
                                                   nearIR, NL-DFT gradient (VV10), updates on ESD,
                                                   ML-optimized integration grids
   S Lehtola, MJT Oliveira, MAL Marques          : LibXC Library
   Liviu Ungur et al                             : ANISO software


 Your calculation uses the libint2 library for the computation of 2-el integrals
 For citations please refer to: http://libint.valeyev.net

 Your ORCA version has been built with support for libXC version: 5.1.0
 For citations please refer to: https://tddft.org/programs/libxc/

 This ORCA versions uses:
   CBLAS   interface :  Fast vector & matrix operations
   LAPACKE interface :  Fast linear algebra routines
   SCALAPACK package :  Parallel linear algebra routines
   Shared memory     :  Shared parallel matrices
   BLAS/LAPACK       :  OpenBLAS 0.3.15  USE64BITINT DYNAMIC_ARCH NO_AFFINITY SkylakeX SINGLE_THREADED
        Core in use  :  SkylakeX
   Copyright (c) 2011-2014, The OpenBLAS Project


Your calculation utilizes the atom-pairwise dispersion correction
with the Becke-Johnson damping scheme (D3BJ)
Cite in your paper:
S.Grimme, S.Ehrlich, L.Goerigk, J Comput Chem, (2011), 32, 1456–1465 
S.Grimme, J.Antony, S.Ehrlich and H.Krieg, J.Chem.Phys., 132, (2010), 154104 
   

================================================================================

----- Orbital basis set information -----
Your calculation utilizes the basis: def2-SVP
   F. Weigend and R. Ahlrichs, Phys. Chem. Chem. Phys. 7, 3297 (2005).

----- AuxJ basis set information -----
Your calculation utilizes the auxiliary basis: def2/J
   F. Weigend, Phys. Chem. Chem. Phys. 8, 1057 (2006).

================================================================================
                                        WARNINGS
                       Please study these warnings very carefully!
================================================================================


WARNING: your system is open-shell and RHF/RKS was chosen
  ===> : WILL SWITCH to UHF/UKS


WARNING: Geometry Optimization
  ===> : Switching off AutoStart
         For restart on a previous wavefunction, please use MOREAD

INFO   : the flag for use of the SHARK integral package has been found!

================================================================================
                                       INPUT FILE
================================================================================
NAME = path_opt8_orca.inp
|  1> ! LooseOpt PBE0 RIJCOSX D3BJ def2-SVP def2/J 
|  2> %geom Constraints
|  3> { B 1 5 2.188689191475229 C }
|  4> { B 0 1 2.8532111120306625 C }
|  5>     end
|  6> end
|  7> %geom MaxIter 50 end
|  8> %output 
|  9> xyzfile=True 
| 10> end 
| 11> %scf 
| 12> maxiter 250 
| 13> end
| 14> %output
| 15> Print[P_Hirshfeld] = 1
| 16> end
| 17> % maxcore
| 18> 4000
| 19> %pal nprocs 8
| 20> end
| 21> *xyz 0 2
| 22> O   -2.70373406   0.59910718   2.07742157 
| 23> O   -0.41386735  -0.42367455   0.82685380 
| 24> C   -0.73538777   0.13337588  -0.41827961 
| 25> C    0.14895743   0.85515525   0.53049707 
| 26> C    1.53752041   0.46710340   0.23583089 
| 27> C    1.36539146  -0.62140995  -0.51738306 
| 28> C    0.11333633  -0.67681440  -1.33601889 
| 29> H   -1.94110875   0.01631551   1.83820865 
| 30> H   -1.77758282   0.41925829  -0.59394002 
| 31> H   -0.20056346   1.69990751   1.12924663 
| 32> H    2.43060401   0.77687504   0.77537767 
| 33> H    2.19149260  -1.30135888  -0.75559813 
| 34> H    0.28400255  -0.25244574  -2.33948356 
| 35> H   -0.29906061  -1.69129457  -1.45273300 
| 36> *
| 37> 
| 38>                          ****END OF INPUT****
================================================================================

                       *****************************
                       * Geometry Optimization Run *
                       *****************************

Geometry optimization settings:
Update method            Update   .... BFGS
Choice of coordinates    CoordSys .... Z-matrix Internals
Initial Hessian          InHess   .... Almoef's Model

Convergence Tolerances:
Energy Change            TolE     ....  3.0000e-05 Eh
Max. Gradient            TolMAXG  ....  2.0000e-03 Eh/bohr
RMS Gradient             TolRMSG  ....  5.0000e-04 Eh/bohr
Max. Displacement        TolMAXD  ....  1.0000e-02 bohr
RMS Displacement         TolRMSD  ....  7.0000e-03 bohr
Strict Convergence                ....  False
------------------------------------------------------------------------------
                        ORCA OPTIMIZATION COORDINATE SETUP
------------------------------------------------------------------------------

The optimization will be done in new redundant internal coordinates
Making redundant internal coordinates   ...  (new redundants) done
Evaluating the initial hessian          ...  (Almloef) done
Evaluating the coordinates              ...  done
Calculating the B-matrix                .... done
Calculating the G-matrix                .... done
Diagonalizing the G-matrix              .... done
Imposing constraints:
 Iter   0:  RMS(Cart)=    0.0125846521 RMS(Int)=    0.0325041835
 Iter   1:  RMS(Cart)=    0.0043678866 RMS(Int)=    0.0112219957
 Iter   2:  RMS(Cart)=    0.0015496379 RMS(Int)=    0.0039314189
 Iter   3:  RMS(Cart)=    0.0005612797 RMS(Int)=    0.0013963538
 Iter   4:  RMS(Cart)=    0.0002064484 RMS(Int)=    0.0005017196
 Iter   5:  RMS(Cart)=    0.0000766908 RMS(Int)=    0.0001819200
 Iter   6:  RMS(Cart)=    0.0000286492 RMS(Int)=    0.0000664166
 Iter   7:  RMS(Cart)=    0.0000107314 RMS(Int)=    0.0000243691
 Iter   8:  RMS(Cart)=    0.0000040233 RMS(Int)=    0.0000089731
 Iter   9:  RMS(Cart)=    0.0000015081 RMS(Int)=    0.0000033122
 Iter  10:  RMS(Cart)=    0.0000005649 RMS(Int)=    0.0000012247
 Iter  11:  RMS(Cart)=    0.0000002114 RMS(Int)=    0.0000004533
 Iter  12:  RMS(Cart)=    0.0000000790 RMS(Int)=    0.0000001679
 Iter  13:  RMS(Cart)=    0.0000000295 RMS(Int)=    0.0000000622
CONVERGED
The first mode is                       ....   54
The number of degrees of freedom        ....   36
Storing new coordinates                 .... done

    -----------------------------------------------------------------
                    Redundant Internal Coordinates


    -----------------------------------------------------------------
         Definition                    Initial Value    Approx d2E/dq
    -----------------------------------------------------------------
      1. B(O   1,O   0)                  2.8532         0.002796 C 
      2. B(C   2,O   1)                  1.3974         0.536564   
      3. B(C   3,O   1)                  1.4237         0.486173   
      4. B(C   3,C   2)                  1.4849         0.441830   
      5. B(C   4,C   3)                  1.4584         0.463018   
      6. B(C   5,C   4)                  1.3288         0.765119   
      7. B(C   5,O   1)                  2.1887         0.024763 C 
      8. B(C   6,C   2)                  1.4779         0.433303   
      9. B(C   6,C   5)                  1.4910         0.421791   
     10. B(H   7,O   0)                  1.0115         0.467112   
     11. B(H   7,O   1)                  1.9065         0.017459   
     12. B(H   8,C   2)                  1.0949         0.353706   
     13. B(H   9,C   3)                  1.0928         0.356379   
     14. B(H  10,C   4)                  1.0884         0.362190   
     15. B(H  11,C   5)                  1.0962         0.352070   
     16. B(H  12,C   6)                  1.1029         0.343565   
     17. B(H  13,C   6)                  1.1013         0.345457   
     18. A(C   2,O   1,C   3)           63.5089         0.399897   
     19. A(C   3,O   1,H   7)          102.4894         0.212417   
     20. A(C   2,O   1,H   7)          101.1224         0.215203   
     21. A(O   1,C   2,C   6)          100.9130         0.394414   
     22. A(O   1,C   2,C   3)           59.1111         0.395764   
     23. A(C   3,C   2,C   6)          108.8508         0.383701   
     24. A(O   1,C   2,H   8)          118.2010         0.341288   
     25. A(C   6,C   2,H   8)          125.7718         0.331368   
     26. A(C   3,C   2,H   8)          122.7941         0.332439   
     27. A(C   2,C   3,H   9)          122.3588         0.332854   
     28. A(C   2,C   3,C   4)          107.9614         0.388159   
     29. A(O   1,C   3,C   2)           57.3800         0.388992   
     30. A(O   1,C   3,H   9)          117.3843         0.336140   
     31. A(C   4,C   3,H   9)          127.9587         0.335453   
     32. A(O   1,C   3,C   4)           99.5030         0.392190   
     33. A(C   3,C   4,H  10)          127.1723         0.336357   
     34. A(C   5,C   4,H  10)          128.4915         0.366138   
     35. A(C   3,C   4,C   5)          101.1027         0.427748   
     36. A(C   4,C   5,C   6)          117.5265         0.420673   
     37. A(C   4,C   5,H  11)          121.5554         0.364366   
     38. A(C   6,C   5,H  11)          118.7010         0.329643   
     39. A(C   2,C   6,H  12)          116.5255         0.329777   
     40. A(C   5,C   6,H  12)          111.1982         0.328314   
     41. A(C   2,C   6,H  13)          110.6633         0.330077   
     42. A(C   5,C   6,H  13)          113.9549         0.328612   
     43. A(C   2,C   6,C   5)           96.0014         0.380621   
     44. A(H  12,C   6,H  13)          108.2859         0.286836   
     45. A(O   0,H   7,O   1)          154.5566         0.194415   
     46. D(H   8,C   2,O   1,C   3)   -113.2892         0.028450   
     47. D(C   6,C   2,O   1,H   7)   -155.9219         0.028450   
     48. D(C   6,C   2,O   1,C   3)    105.5513         0.028450   
     49. D(C   3,C   2,O   1,H   7)     98.5268         0.028450   
     50. D(H   8,C   2,O   1,H   7)    -14.7624         0.028450   
     51. D(C   2,C   3,O   1,H   7)    -96.3365         0.023118   
     52. D(C   4,C   3,O   1,C   2)   -105.3126         0.023118   
     53. D(H   9,C   3,C   2,C   6)    164.4025         0.015423   
     54. D(C   4,C   3,O   1,H   7)    158.3509         0.023118   
     55. D(O   1,C   3,C   2,H   8)    105.6424         0.015423   
     56. D(C   4,C   3,C   2,O   1)     89.9188         0.015423   
     57. D(C   4,C   3,C   2,H   8)   -164.4389         0.015423   
     58. D(H   9,C   3,O   1,H   7)     16.2524         0.023118   
     59. D(H   9,C   3,C   2,O   1)   -103.9434         0.015423   
     60. D(H   9,C   3,O   1,C   2)    112.5889         0.023118   
     61. D(O   1,C   3,C   2,C   6)    -91.6542         0.015423   
     62. D(H   9,C   3,C   2,H   8)      1.6990         0.015423   
     63. D(C   4,C   3,C   2,C   6)     -1.7354         0.015423   
     64. D(C   5,C   4,C   3,H   9)    179.1497         0.015805   
     65. D(C   5,C   4,C   3,O   1)     42.9240         0.015805   
     66. D(C   5,C   4,C   3,C   2)    -15.7236         0.015805   
     67. D(H  10,C   4,C   3,C   2)   -176.5984         0.015805   
     68. D(H  10,C   4,C   3,H   9)     18.2749         0.015805   
     69. D(H  10,C   4,C   3,O   1)   -117.9508         0.015805   
     70. D(C   6,C   5,C   4,C   3)     30.1195         0.045624   
     71. D(C   6,C   5,C   4,H  10)   -169.3645         0.045624   
     72. D(H  11,C   5,C   4,C   3)   -167.0232         0.045624   
     73. D(H  11,C   5,C   4,H  10)     -6.5073         0.045624   
     74. D(C   5,C   6,C   2,O   1)    -44.6548         0.014839   
     75. D(C   5,C   6,C   2,C   3)     16.2255         0.014839   
     76. D(C   5,C   6,C   2,H   8)    178.2841         0.014839   
     77. D(H  13,C   6,C   5,H  11)     50.4510         0.014074   
     78. D(H  12,C   6,C   2,C   3)   -101.0866         0.014839   
     79. D(H  12,C   6,C   2,H   8)     60.9720         0.014839   
     80. D(H  13,C   6,C   2,O   1)     73.7678         0.014839   
     81. D(H  13,C   6,C   2,C   3)    134.6481         0.014839   
     82. D(H  13,C   6,C   2,H   8)    -63.2932         0.014839   
     83. D(C   2,C   6,C   5,C   4)    -30.4053         0.014074   
     84. D(C   2,C   6,C   5,H  11)    166.2344         0.014074   
     85. D(H  12,C   6,C   5,C   4)     91.0895         0.014074   
     86. D(H  12,C   6,C   5,H  11)    -72.2708         0.014074   
     87. D(H  12,C   6,C   2,O   1)   -161.9670         0.014839   
     88. D(H  13,C   6,C   5,C   4)   -146.1887         0.014074   
     89. D(O   0,H   7,O   1,C   2)    -32.5554         0.001694   
     90. D(O   0,H   7,O   1,C   3)     32.4793         0.001694   
    -----------------------------------------------------------------

Number of atoms                         .... 14
Number of degrees of freedom            .... 90

         *************************************************************
         *                GEOMETRY OPTIMIZATION CYCLE   1            *
         *************************************************************
---------------------------------
CARTESIAN COORDINATES (ANGSTROEM)
---------------------------------
  O     -2.723397    0.586227    2.104284
  O     -0.391245   -0.423678    0.807375
  C     -0.725493    0.136181   -0.428524
  C      0.158515    0.858098    0.521297
  C      1.535559    0.471387    0.236646
  C      1.348078   -0.613423   -0.507582
  C      0.111393   -0.673936   -1.338182
  H     -1.935540    0.010645    1.837603
  H     -1.768121    0.421700   -0.602202
  H     -0.192541    1.701007    1.121752
  H      2.429330    0.774950    0.778619
  H      2.170554   -1.300819   -0.737113
  H      0.286829   -0.260286   -2.345368
  H     -0.303920   -1.687954   -1.448604

----------------------------
CARTESIAN COORDINATES (A.U.)
----------------------------
  NO LB      ZA    FRAG     MASS         X           Y           Z
   0 O     8.0000    0    15.999   -5.146475    1.107808    3.976520
   1 O     8.0000    0    15.999   -0.739346   -0.800635    1.525718
   2 C     6.0000    0    12.011   -1.370983    0.257345   -0.809792
   3 C     6.0000    0    12.011    0.299549    1.621571    0.985109
   4 C     6.0000    0    12.011    2.901785    0.890793    0.447196
   5 C     6.0000    0    12.011    2.547498   -1.159202   -0.959192
   6 C     6.0000    0    12.011    0.210503   -1.273554   -2.528798
   7 H     1.0000    0     1.008   -3.657641    0.020116    3.472567
   8 H     1.0000    0     1.008   -3.341265    0.796898   -1.137998
   9 H     1.0000    0     1.008   -0.363851    3.214438    2.119803
  10 H     1.0000    0     1.008    4.590768    1.464443    1.471376
  11 H     1.0000    0     1.008    4.101752   -2.458192   -1.392942
  12 H     1.0000    0     1.008    0.542029   -0.491869   -4.432104
  13 H     1.0000    0     1.008   -0.574326   -3.189772   -2.737465

--------------------------------
INTERNAL COORDINATES (ANGSTROEM)
--------------------------------
 O      0   0   0     0.000000000000     0.00000000     0.00000000
 O      1   0   0     2.802408207979     0.00000000     0.00000000
 C      2   1   0     1.401441319049    93.66636089     0.00000000
 C      2   1   3     1.428287331655    95.03722759    63.45779213
 C      4   2   1     1.471570435063   100.21081568   163.71926673
 C      5   4   2     1.334848659224   101.90842456    43.33397948
 C      3   2   1     1.489626219487   101.56452695   198.68577002
 H      1   2   3     0.989174562536    17.65332017   148.17522236
 H      3   2   1     1.094877095492   117.69165535   340.16155482
 H      4   2   1     1.092827648315   116.89750014    21.30342645
 H      5   4   2     1.088424325962   126.86512863   242.05770490
 H      6   5   4     1.096138704951   122.09228479   192.72565658
 H      7   3   2     1.102795113417   116.07036761   197.82180057
 H      7   3   2     1.101300792208   110.66785808    73.72838718

---------------------------
INTERNAL COORDINATES (A.U.)
---------------------------
 O      0   0   0     0.000000000000     0.00000000     0.00000000
 O      1   0   0     5.295784028534     0.00000000     0.00000000
 C      2   1   0     2.648340285764    93.66636089     0.00000000
 C      2   1   3     2.699071897377    95.03722759    63.45779213
 C      4   2   1     2.780865109044   100.21081568   163.71926673
 C      5   4   2     2.522498396164   101.90842456    43.33397948
 C      3   2   1     2.814985596738   101.56452695   198.68577002
 H      1   2   3     1.869269021835    17.65332017   148.17522236
 H      3   2   1     2.069017860783   117.69165535   340.16155482
 H      4   2   1     2.065144966893   116.89750014    21.30342645
 H      5   4   2     2.056823893566   126.86512863   242.05770490
 H      6   5   4     2.071401957149   122.09228479   192.72565658
 H      7   3   2     2.083980746186   116.07036761   197.82180057
 H      7   3   2     2.081156888343   110.66785808    73.72838718

---------------------
BASIS SET INFORMATION
---------------------
There are 3 groups of distinct atoms

 Group   1 Type O   : 7s4p1d contracted to 3s2p1d pattern {511/31/1}
 Group   2 Type C   : 7s4p1d contracted to 3s2p1d pattern {511/31/1}
 Group   3 Type H   : 4s1p contracted to 2s1p pattern {31/1}

Atom   0O    basis set group =>   1
Atom   1O    basis set group =>   1
Atom   2C    basis set group =>   2
Atom   3C    basis set group =>   2
Atom   4C    basis set group =>   2
Atom   5C    basis set group =>   2
Atom   6C    basis set group =>   2
Atom   7H    basis set group =>   3
Atom   8H    basis set group =>   3
Atom   9H    basis set group =>   3
Atom  10H    basis set group =>   3
Atom  11H    basis set group =>   3
Atom  12H    basis set group =>   3
Atom  13H    basis set group =>   3
---------------------------------
AUXILIARY/J BASIS SET INFORMATION
---------------------------------
There are 3 groups of distinct atoms

 Group   1 Type O   : 12s5p4d2f1g contracted to 6s4p3d1f1g pattern {711111/2111/211/2/1}
 Group   2 Type C   : 12s5p4d2f1g contracted to 6s4p3d1f1g pattern {711111/2111/211/2/1}
 Group   3 Type H   : 5s2p1d contracted to 3s1p1d pattern {311/2/1}

Atom   0O    basis set group =>   1
Atom   1O    basis set group =>   1
Atom   2C    basis set group =>   2
Atom   3C    basis set group =>   2
Atom   4C    basis set group =>   2
Atom   5C    basis set group =>   2
Atom   6C    basis set group =>   2
Atom   7H    basis set group =>   3
Atom   8H    basis set group =>   3
Atom   9H    basis set group =>   3
Atom  10H    basis set group =>   3
Atom  11H    basis set group =>   3
Atom  12H    basis set group =>   3
Atom  13H    basis set group =>   3


           ************************************************************
           *        Program running with 8 parallel MPI-processes     *
           *              working on a common directory               *
           ************************************************************
------------------------------------------------------------------------------
                           ORCA GTO INTEGRAL CALCULATION
                           -- RI-GTO INTEGRALS CHOSEN --
------------------------------------------------------------------------------
------------------------------------------------------------------------------
                   ___                                                        
                  /   \      - P O W E R E D   B Y -                         
                 /     \                                                     
                 |  |  |   _    _      __       _____    __    __             
                 |  |  |  | |  | |    /  \     |  _  \  |  |  /  |          
                  \  \/   | |  | |   /    \    | | | |  |  | /  /          
                 / \  \   | |__| |  /  /\  \   | |_| |  |  |/  /          
                |  |  |   |  __  | /  /__\  \  |    /   |      \           
                |  |  |   | |  | | |   __   |  |    \   |  |\   \          
                \     /   | |  | | |  |  |  |  | |\  \  |  | \   \       
                 \___/    |_|  |_| |__|  |__|  |_| \__\ |__|  \__/        
                                                                              
                      - O R C A' S   B I G   F R I E N D -                    
                                      &                                       
                       - I N T E G R A L  F E E D E R -                       
                                                                              
 v1 FN, 2020, v2 2021                                                         
------------------------------------------------------------------------------


Reading SHARK input file path_opt8_orca.SHARKINP.tmp ... ok
----------------------
SHARK INTEGRAL PACKAGE
----------------------

Number of atoms                             ...     14
Number of basis functions                   ...    133
Number of shells                            ...     63
Maximum angular momentum                    ...      2
Integral batch strategy                     ... SHARK/LIBINT Hybrid
RI-J (if used) integral strategy            ... SPLIT-RIJ (Revised 2003 algorithm where possible)
Printlevel                                  ...      1
Contraction scheme used                     ... SEGMENTED contraction
Coulomb Range Separation                    ... NOT USED
Exchange Range Separation                   ... NOT USED
Finite Nucleus Model                        ... NOT USED
Auxiliary Coulomb fitting basis             ... AVAILABLE
   # of basis functions in Aux-J            ...    420
   # of shells in Aux-J                     ...    140
   Maximum angular momentum in Aux-J        ...      4
Auxiliary J/K fitting basis                 ... NOT available
Auxiliary Correlation fitting basis         ... NOT available
Auxiliary 'external' fitting basis          ... NOT available
Integral threshold                          ...     2.500000e-11
Primitive cut-off                           ...     2.500000e-12
Primitive pair pre-selection threshold      ...     2.500000e-12

Calculating pre-screening integrals         ... done (  0.0 sec) Dimension = 63
Organizing shell pair data                  ... done (  0.0 sec)
Shell pair information
Total number of shell pairs                 ...      2016
Shell pairs after pre-screening             ...      1931
Total number of primitive shell pairs       ...      7252
Primitive shell pairs kept                  ...      5331
          la=0 lb=0:    603 shell pairs
          la=1 lb=0:    711 shell pairs
          la=1 lb=1:    224 shell pairs
          la=2 lb=0:    229 shell pairs
          la=2 lb=1:    139 shell pairs
          la=2 lb=2:     25 shell pairs

Calculating one electron integrals          ... done (  0.0 sec)
Calculating RI/J V-Matrix + Cholesky decomp.... done (  0.0 sec)
Calculating Nuclear repulsion               ... done (  0.0 sec) ENN=    297.852457617710 Eh

SHARK setup successfully completed in   0.1 seconds

Maximum memory used throughout the entire GTOINT-calculation: 10.7 MB


           ************************************************************
           *        Program running with 8 parallel MPI-processes     *
           *              working on a common directory               *
           ************************************************************
-------------------------------------------------------------------------------
                                 ORCA SCF
-------------------------------------------------------------------------------

------------
SCF SETTINGS
------------
Hamiltonian:
 Density Functional     Method          .... DFT(GTOs)
 Exchange Functional    Exchange        .... PBE
   PBE kappa parameter   XKappa         ....  0.804000
   PBE mue parameter    XMuePBE         ....  0.219520
 Correlation Functional Correlation     .... PBE
   PBE beta parameter  CBetaPBE         ....  0.066725
 LDA part of GGA corr.  LDAOpt          .... PW91-LDA
 Gradients option       PostSCFGGA      .... off
 Hybrid DFT is turned on
   Fraction HF Exchange ScalHFX         ....  0.250000
   Scaling of DF-GGA-X  ScalDFX         ....  0.750000
   Scaling of DF-GGA-C  ScalDFC         ....  1.000000
   Scaling of DF-LDA-C  ScalLDAC        ....  1.000000
   Perturbative correction              ....  0.000000
   Density functional embedding theory  .... OFF
   NL short-range parameter             ....  6.900000
 RI-approximation to the Coulomb term is turned on
   Number of AuxJ basis functions       .... 420
   RIJ-COSX (HFX calculated with COS-X)).... on


General Settings:
 Integral files         IntName         .... path_opt8_orca
 Hartree-Fock type      HFTyp           .... UHF
 Total Charge           Charge          ....    0
 Multiplicity           Mult            ....    2
 Number of Electrons    NEL             ....   53
 Basis Dimension        Dim             ....  133
 Nuclear Repulsion      ENuc            ....    297.8524576177 Eh

Convergence Acceleration:
 DIIS                   CNVDIIS         .... on
   Start iteration      DIISMaxIt       ....    12
   Startup error        DIISStart       ....  0.200000
   # of expansion vecs  DIISMaxEq       ....     5
   Bias factor          DIISBfac        ....   1.050
   Max. coefficient     DIISMaxC        ....  10.000
 Trust-Rad. Augm. Hess. CNVTRAH         .... auto
   Auto Start mean grad. ratio tolernc. ....  1.125000
   Auto Start start iteration           ....    20
   Auto Start num. interpolation iter.  ....    10
   Max. Number of Micro iterations      ....    16
   Max. Number of Macro iterations      .... Maxiter - #DIIS iter
   Number of Davidson start vectors     ....     2
   Converg. threshold I  (grad. norm)   ....   1.000e-05
   Converg. threshold II (energy diff.) ....   1.000e-08
   Grad. Scal. Fac. for Micro threshold ....   0.100
   Minimum threshold for Micro iter.    ....   0.010
   NR start threshold (gradient norm)   ....   0.001
   Initial trust radius                 ....   0.400
   Minimum AH scaling param. (alpha)    ....   1.000
   Maximum AH scaling param. (alpha)    .... 1000.000
   Orbital update algorithm             .... Taylor
   White noise on init. David. guess    .... on
   Maximum white noise                  ....   0.010
   Quad. conv. algorithm                .... NR
 SOSCF                  CNVSOSCF        .... off
 Level Shifting         CNVShift        .... on
   Level shift para.    LevelShift      ....    0.2500
   Turn off err/grad.   ShiftErr        ....    0.0010
 Zerner damping         CNVZerner       .... off
 Static damping         CNVDamp         .... on
   Fraction old density DampFac         ....    0.7000
   Max. Damping (<1)    DampMax         ....    0.9800
   Min. Damping (>=0)   DampMin         ....    0.0000
   Turn off err/grad.   DampErr         ....    0.1000
 Fernandez-Rico         CNVRico         .... off

SCF Procedure:
 Maximum # iterations   MaxIter         ....   250
 SCF integral mode      SCFMode         .... Direct
   Integral package                     .... SHARK and LIBINT hybrid scheme
 Reset frequency        DirectResetFreq ....    20
 Integral Threshold     Thresh          ....  2.500e-11 Eh
 Primitive CutOff       TCut            ....  2.500e-12 Eh

Convergence Tolerance:
 Convergence Check Mode ConvCheckMode   .... Total+1el-Energy
 Convergence forced     ConvForced      .... 0
 Energy Change          TolE            ....  1.000e-08 Eh
 1-El. energy change                    ....  1.000e-05 Eh
 DIIS Error             TolErr          ....  5.000e-07


Diagonalization of the overlap matrix:
Smallest eigenvalue                        ... 6.210e-04
Time for diagonalization                   ...    0.003 sec
Threshold for overlap eigenvalues          ... 1.000e-08
Number of eigenvalues below threshold      ... 0
Time for construction of square roots      ...    0.001 sec
Total time needed                          ...    0.004 sec

Time for model grid setup =    0.042 sec

------------------------------
INITIAL GUESS: MODEL POTENTIAL
------------------------------
Loading Hartree-Fock densities                     ... done
Calculating cut-offs                               ... done
Initializing the effective Hamiltonian             ... done
Setting up the integral package (SHARK)            ... done
Starting the Coulomb interaction                   ... done (   0.0 sec)
Reading the grid                                   ... done
Mapping shells                                     ... done
Starting the XC term evaluation                    ... done (   0.0 sec)
  promolecular density results
     # of electrons  =     52.997441772
     EX              =    -43.918732031
     EC              =     -1.762104924
     EX+EC           =    -45.680836955
Transforming the Hamiltonian                       ... done (   0.0 sec)
Diagonalizing the Hamiltonian                      ... done (   0.0 sec)
Back transforming the eigenvectors                 ... done (   0.0 sec)
Now organizing SCF variables                       ... done
                      ------------------
                      INITIAL GUESS DONE (   0.1 sec)
                      ------------------
-------------------
DFT GRID GENERATION
-------------------

General Integration Accuracy     IntAcc      ... 4.388
Radial Grid Type                 RadialGrid  ... OptM3 with GC (2021)
Angular Grid (max. ang.)         AngularGrid ... 4 (Lebedev-302)
Angular grid pruning method      GridPruning ... 4 (adaptive)
Weight generation scheme         WeightScheme... Becke
Basis function cutoff            BFCut       ... 1.0000e-11
Integration weight cutoff        WCut        ... 1.0000e-14
Angular grids for H and He will be reduced by one unit
Partially contracted basis set               ... off
Rotationally invariant grid construction     ... off

Total number of grid points                  ...    64821
Total number of batches                      ...     1020
Average number of points per batch           ...       63
Average number of grid points per atom       ...     4630
Time for grid setup =    0.244 sec

--------------------
COSX GRID GENERATION
--------------------

GRIDX 1
-------
General Integration Accuracy     IntAcc      ... 3.816
Radial Grid Type                 RadialGrid  ... OptM3 with GC (2021)
Angular Grid (max. ang.)         AngularGrid ... 1 (Lebedev-50)
Angular grid pruning method      GridPruning ... 4 (adaptive)
Weight generation scheme         WeightScheme... Becke
Basis function cutoff            BFCut       ... 1.0000e-11
Integration weight cutoff        WCut        ... 1.0000e-14
Angular grids for H and He will be reduced by one unit
Partially contracted basis set               ... on
Rotationally invariant grid construction     ... off

Total number of grid points                  ...     8295
Total number of batches                      ...      137
Average number of points per batch           ...       60
Average number of grid points per atom       ...      592
UseSFitting                                  ... on

GRIDX 2
-------
General Integration Accuracy     IntAcc      ... 4.020
Radial Grid Type                 RadialGrid  ... OptM3 with GC (2021)
Angular Grid (max. ang.)         AngularGrid ... 2 (Lebedev-110)
Angular grid pruning method      GridPruning ... 4 (adaptive)
Weight generation scheme         WeightScheme... Becke
Basis function cutoff            BFCut       ... 1.0000e-11
Integration weight cutoff        WCut        ... 1.0000e-14
Angular grids for H and He will be reduced by one unit
Partially contracted basis set               ... on
Rotationally invariant grid construction     ... off

Total number of grid points                  ...    18017
Total number of batches                      ...      290
Average number of points per batch           ...       62
Average number of grid points per atom       ...     1287
UseSFitting                                  ... on

GRIDX 3
-------
General Integration Accuracy     IntAcc      ... 4.338
Radial Grid Type                 RadialGrid  ... OptM3 with GC (2021)
Angular Grid (max. ang.)         AngularGrid ... 3 (Lebedev-194)
Angular grid pruning method      GridPruning ... 4 (adaptive)
Weight generation scheme         WeightScheme... Becke
Basis function cutoff            BFCut       ... 1.0000e-11
Integration weight cutoff        WCut        ... 1.0000e-14
Angular grids for H and He will be reduced by one unit
Partially contracted basis set               ... on
Rotationally invariant grid construction     ... off

Total number of grid points                  ...    39617
Total number of batches                      ...      627
Average number of points per batch           ...       63
Average number of grid points per atom       ...     2830
UseSFitting                                  ... on

Time for X-Grid setup             =    0.177 sec

--------------
SCF ITERATIONS
--------------
ITER       Energy         Delta-E        Max-DP      RMS-DP      [F,P]     Damp
               ***  Starting incremental Fock matrix formation  ***
  0   -343.8933573394   0.000000000000 0.31418877  0.00619418  0.2249325 0.7000
  1   -343.9472775386  -0.053920199156 0.05921520  0.00163152  0.0415648 0.7000
                               ***Turning on DIIS***
  2   -344.0725968249  -0.125319286275 0.21418315  0.00449443  0.0392194 0.0000
  3   -344.0598035357   0.012793289125 0.02967361  0.00116837  0.0905748 0.0000
  4   -344.1306423754  -0.070838839657 0.02919956  0.00089169  0.0566209 0.0000
  5   -344.1855144164  -0.054872041023 0.03169687  0.00069893  0.0531107 0.0000
  6   -344.2295043730  -0.043989956569 0.03240824  0.00069122  0.0477352 0.0000
  7   -344.2643891234  -0.034884750400 0.04962110  0.00122187  0.0386409 0.0000
  8   -344.3060664027  -0.041677279275 0.03175513  0.00089611  0.0221556 0.0000
  9   -344.3240095195  -0.017943116886 0.01734094  0.00065003  0.0172405 0.0000
 10   -344.3328852639  -0.008875744333 0.01315632  0.00070212  0.0100218 0.0000
 11   -344.3374498499  -0.004564585992 0.00940125  0.00035816  0.0076711 0.0000
 12   -344.3394506730  -0.002000823152 0.00639543  0.00018616  0.0088889 0.0000
 13   -344.3407484615  -0.001297788462 0.00620156  0.00020462  0.0074937 0.0000
 14   -344.3417651867  -0.001016725242 0.00485838  0.00014497  0.0026678 0.0000
 15   -344.3421638363  -0.000398649558 0.00319157  0.00008842  0.0025546 0.0000
 16   -344.3423822800  -0.000218443758 0.00249503  0.00006793  0.0013181 0.0000
 17   -344.3424962492  -0.000113969174 0.00459611  0.00012143  0.0009287 0.0000
               *** Restarting incremental Fock matrix formation ***
                                   *** Resetting DIIS ***
 18   -344.3425696717  -0.000073422527 0.00053231  0.00002246  0.0003963 0.0000
 19   -344.3425687080   0.000000963758 0.00034044  0.00001201  0.0005559 0.0000
 20   -344.3425721669  -0.000003458934 0.00012925  0.00000368  0.0000977 0.0000
 21   -344.3425723743  -0.000000207414 0.00011900  0.00000326  0.0000695 0.0000
 22   -344.3425725589  -0.000000184602 0.00016185  0.00000331  0.0000550 0.0000
 23   -344.3425726985  -0.000000139588 0.00018805  0.00000333  0.0000453 0.0000
 24   -344.3425728232  -0.000000124719 0.00021355  0.00000297  0.0000524 0.0000
 25   -344.3425729286  -0.000000105409 0.00017531  0.00000219  0.0000556 0.0000
 26   -344.3425729985  -0.000000069832 0.00017248  0.00000211  0.0000556 0.0000
 27   -344.3425730731  -0.000000074574 0.00015933  0.00000191  0.0000549 0.0000
 28   -344.3425731352  -0.000000062132 0.00009448  0.00000114  0.0000544 0.0000

 WARNING: the maximum gradient error descreased on average only by a factor   1.0
          during the last 20 iterations

                      *** Initiating the TRAH-SCF procedure ***


TRAH GRIDX
----------

General Integration Accuracy     IntAcc      ... 3.067
Radial Grid Type                 RadialGrid  ... OptM3 with GC (2021)
Angular Grid (max. ang.)         AngularGrid ... 1 (Lebedev-50)
Angular grid pruning method      GridPruning ... 4 (adaptive)
Weight generation scheme         WeightScheme... Becke
Basis function cutoff            BFCut       ... 1.0000e-11
Integration weight cutoff        WCut        ... 1.0000e-14
Angular grids for H and He will be reduced by one unit
Partially contracted basis set               ... on
Rotationally invariant grid construction     ... off

Total number of grid points                  ...     4348
Total number of batches                      ...       77
Average number of points per batch           ...       56
Average number of grid points per atom       ...      311


TRAH GRID
---------

General Integration Accuracy     IntAcc      ... 3.467
Radial Grid Type                 RadialGrid  ... OptM3 with GC (2021)
Angular Grid (max. ang.)         AngularGrid ... 1 (Lebedev-50)
Angular grid pruning method      GridPruning ... 4 (adaptive)
Weight generation scheme         WeightScheme... Becke
Basis function cutoff            BFCut       ... 1.0000e-11
Integration weight cutoff        WCut        ... 1.0000e-14
Angular grids for H and He will be reduced by one unit
Partially contracted basis set               ... off
Rotationally invariant grid construction     ... off

Total number of grid points                  ...     9437
Total number of batches                      ...      154
Average number of points per batch           ...       61
Average number of grid points per atom       ...      674

 --------------------------------------------------------------------------------------------
   Iter.        energy            ||Error||_2        Shift      TRadius  Mac/Mic        Rej.
 --------------------------------------------------------------------------------------------
    0       -344.342573171484     9.438858e-05                     0.400 (TRAH MAcro)   No
    0     dE    -8.883893e-09     1.967908e-04    -8.8842e-09      0.000 (TRAH MIcro)
    0     dE    -1.204234e-04     6.036117e-03    -1.5262e-03      0.257 (TRAH MIcro)
    0     dE    -1.510502e-04     3.444804e-03    -1.6591e-03      0.280 (TRAH MIcro)
    0     dE    -1.714710e-04     1.976651e-03    -1.7357e-03      0.293 (TRAH MIcro)
    0     dE    -1.773214e-04     1.588034e-03    -1.7566e-03      0.297 (TRAH MIcro)
    0     dE    -1.810415e-04     6.381638e-04    -1.7698e-03      0.299 (TRAH MIcro)
    0     dE    -1.817545e-04     3.839642e-04    -1.7724e-03      0.299 (TRAH MIcro)
    0     dE    -1.820828e-04     2.076523e-04    -1.7736e-03      0.300 (TRAH MIcro)
    0     dE    -1.822095e-04     1.138611e-04    -1.7739e-03      0.300 (TRAH MIcro)
    0     dE    -1.822245e-04     5.831848e-05    -1.7740e-03      0.300 (TRAH MIcro)
    0     dE    -1.822271e-04     3.446112e-05    -1.7740e-03      0.300 (TRAH MIcro)
    0     dE    -1.822272e-04     3.246288e-05    -1.7740e-03      0.300 (TRAH MIcro)
    0     dE    -1.822270e-04     3.589197e-05    -1.7740e-03      0.300 (TRAH MIcro)
    0     dE    -1.822270e-04     3.720294e-05    -1.7740e-03      0.300 (TRAH MIcro)
    1       -344.342663187920     1.051215e-02                     0.400 (TRAH MAcro)   No
    1     dE    -3.268389e-05     8.442247e-03    -3.2684e-05      0.003 (TRAH MIcro)
    1     dE    -4.397398e-05     1.418400e-03    -4.3973e-05      0.006 (TRAH MIcro)
    1     dE    -4.842947e-05     3.409543e-03    -4.8419e-05      0.014 (TRAH MIcro)
    1     dE    -6.464024e-05     1.043129e-02    -6.4423e-05      0.058 (TRAH MIcro)
    1     dE    -1.252411e-04     8.679981e-03    -1.1968e-04      0.216 (TRAH MIcro)
    1     dE    -1.632875e-04     2.601812e-03    -1.4966e-04      0.302 (TRAH MIcro)
    1     dE    -1.692381e-04     1.437526e-03    -1.5402e-04      0.314 (TRAH MIcro)
    1     dE    -1.705067e-04     7.823203e-04    -1.5493e-04      0.317 (TRAH MIcro)
    2       -344.342938372726     1.182652e-02                     0.480 (TRAH MAcro)   No
    2     dE    -3.951459e-05     1.083172e-02    -3.9514e-05      0.003 (TRAH MIcro)
    2     dE    -5.714779e-05     2.100019e-03    -5.7145e-05      0.007 (TRAH MIcro)
    2     dE    -6.333994e-05     3.076661e-03    -6.3326e-05      0.015 (TRAH MIcro)
    2     dE    -9.884524e-05     1.233022e-02    -9.8260e-05      0.077 (TRAH MIcro)
    2     dE    -2.925357e-04     2.259009e-02    -2.5642e-04      0.375 (TRAH MIcro)
    2     dE    -5.464903e-04     7.638670e-03    -1.0332e-03      0.480 (TRAH MIcro)
    2     dE    -6.095541e-04     7.465138e-03    -1.3132e-03      0.480 (TRAH MIcro)
    2     dE    -6.281479e-04     4.232438e-03    -1.3961e-03      0.480 (TRAH MIcro)
    2     dE    -6.342423e-04     8.671807e-04    -1.4234e-03      0.480 (TRAH MIcro)
    3       -344.343191501369     2.680312e-02                     0.480 (TRAH MAcro)   No
    3     dE    -2.098205e-04     2.227603e-02    -2.0981e-04      0.008 (TRAH MIcro)
    3     dE    -2.762087e-04     2.202335e-03    -2.7617e-04      0.013 (TRAH MIcro)
    4       -344.343467754696     2.202140e-03                     0.576 (TRAH MAcro)   No
    4     dE    -2.851102e-07     1.090301e-03    -2.8511e-07      0.000 (TRAH MIcro)
    4     dE    -2.208260e-06     1.257803e-03    -2.2082e-06      0.003 (TRAH MIcro)
    4     dE    -8.820797e-06     3.376044e-03    -8.8180e-06      0.018 (TRAH MIcro)
    4     dE    -4.027426e-05     7.948371e-03    -3.9907e-05      0.096 (TRAH MIcro)
    4     dE    -3.592169e-04     1.553374e-02    -3.9641e-04      0.576 (TRAH MIcro)
    4     dE    -5.538965e-04     5.937987e-03    -9.8958e-04      0.576 (TRAH MIcro)
    4     dE    -5.827211e-04     3.907530e-03    -1.0780e-03      0.576 (TRAH MIcro)
    4     dE    -5.977343e-04     2.812426e-03    -1.1242e-03      0.576 (TRAH MIcro)
    4     dE    -6.038663e-04     1.631331e-03    -1.1430e-03      0.576 (TRAH MIcro)
    4     dE    -6.058269e-04     8.056555e-04    -1.1490e-03      0.576 (TRAH MIcro)
    4     dE    -6.065374e-04     5.080879e-04    -1.1512e-03      0.576 (TRAH MIcro)
    4     dE    -6.067833e-04     2.382680e-04    -1.1520e-03      0.576 (TRAH MIcro)
    4     dE    -6.068207e-04     1.006608e-04    -1.1521e-03      0.576 (TRAH MIcro)
 ---------------------------------
          TRAH Step control 
 ---------------------------------
  predicted energy change = -0.000607
  actual energy  change   = 0.000429
  energy change ratio     = -0.707547
  old trust radius        = 0.576000
  new trust radius        = 0.403200
  reject step?            =  1
    5       -344.343467754696     2.680312e-02                     0.403 (TRAH MAcro)  Yes
    6       -344.343467754696     2.202140e-03                     0.403 (TRAH MAcro)   No
    6     dE    -2.851226e-07     1.090369e-03    -2.8512e-07      0.000 (TRAH MIcro)
    6     dE    -2.208378e-06     1.258138e-03    -2.2084e-06      0.003 (TRAH MIcro)
    6     dE    -8.821996e-06     3.376804e-03    -8.8192e-06      0.018 (TRAH MIcro)
    6     dE    -4.024743e-05     7.949205e-03    -3.9881e-05      0.096 (TRAH MIcro)
    6     dE    -2.719215e-04     1.088477e-02    -6.9084e-04      0.403 (TRAH MIcro)
    6     dE    -3.492191e-04     3.934421e-03    -1.3212e-03      0.387 (TRAH MIcro)
    6     dE    -3.788326e-04     2.703945e-03    -1.3703e-03      0.402 (TRAH MIcro)
    6     dE    -3.873666e-04     1.950011e-03    -1.4135e-03      0.403 (TRAH MIcro)
    6     dE    -3.903125e-04     1.130419e-03    -1.4321e-03      0.403 (TRAH MIcro)
    6     dE    -3.912554e-04     5.594203e-04    -1.4379e-03      0.403 (TRAH MIcro)
    6     dE    -3.915940e-04     3.488857e-04    -1.4401e-03      0.403 (TRAH MIcro)
    6     dE    -3.917111e-04     1.648429e-04    -1.4409e-03      0.403 (TRAH MIcro)
    7       -344.343491776732     1.907103e-02                     0.282 (TRAH MAcro)   No
    7     dE    -1.070658e-04     1.540733e-02    -1.0706e-04      0.006 (TRAH MIcro)
    7     dE    -1.389714e-04     1.420878e-03    -1.3896e-04      0.009 (TRAH MIcro)
    8       -344.343630761863     1.421242e-03                     0.339 (TRAH MAcro)   No
    8     dE    -1.078136e-07     5.263504e-04    -1.0783e-07      0.000 (TRAH MIcro)
    8     dE    -2.445981e-07     2.324881e-04    -2.4460e-07      0.000 (TRAH MIcro)
    8     dE    -2.783741e-07     7.950900e-05    -2.7837e-07      0.000 (TRAH MIcro)
    9       -344.343631036339     7.953877e-05                           (NR   MAcro)
    9     dE    -3.524884e-09     3.469913e-05                           (NR   MIcro)
    9     dE    -5.132426e-09     2.755952e-05                           (NR   MIcro)
    9     dE    -6.346512e-09     2.775560e-05                           (NR   MIcro)
    9     dE    -7.671996e-09     3.272685e-05                           (NR   MIcro)
    9     dE    -1.155969e-08     5.811004e-05                           (NR   MIcro)
    9     dE    -1.765263e-08     8.426653e-05                           (NR   MIcro)
    9     dE    -3.046486e-08     1.047844e-04                           (NR   MIcro)
    9     dE    -4.423395e-08     8.093370e-05                           (NR   MIcro)
    9     dE    -5.253976e-08     7.225248e-05                           (NR   MIcro)
    9     dE    -6.038045e-08     6.583688e-05                           (NR   MIcro)
    9     dE    -6.315029e-08     2.399429e-05                           (NR   MIcro)
    9     dE    -6.348762e-08     9.903894e-06                           (NR   MIcro)
    9     dE    -6.354965e-08     3.793007e-06                           (NR   MIcro)
    9     dE    -6.355908e-08     1.430232e-06                           (NR   MIcro)
    9     dE    -6.355939e-08     1.114668e-06                           (NR   MIcro)
   10       -344.343631071570     2.051569e-05                           (NR   MAcro)
   10     dE    -3.044400e-10     8.919954e-06                           (NR   MIcro)
   10     dE    -1.203762e-09     3.608577e-05                           (NR   MIcro)
   10     dE    -3.260968e-09     4.098077e-05                           (NR   MIcro)
   10     dE    -6.746427e-09     5.271156e-05                           (NR   MIcro)
   10     dE    -9.641322e-09     4.599366e-05                           (NR   MIcro)
   10     dE    -1.144211e-08     2.487177e-05                           (NR   MIcro)
   10     dE    -1.180068e-08     1.118325e-05                           (NR   MIcro)
   10     dE    -1.186389e-08     4.047171e-06                           (NR   MIcro)
   10     dE    -1.187204e-08     1.945925e-06                           (NR   MIcro)
   10     dE    -1.187493e-08     1.133014e-06                           (NR   MIcro)
   10     dE    -1.187588e-08     8.481371e-07                           (NR   MIcro)
   11       -344.343631079602     6.716012e-06                           (NR   MAcro)

               *****************************************************
               *                     SUCCESS                       *
               *           SCF CONVERGED AFTER 129 CYCLES          *
               *****************************************************

Old exchange energy                            =    -11.207266644 Eh
New exchange energy                            =    -11.207280587 Eh
Exchange energy change after final integration =     -0.000013943 Eh
Total energy after final integration           =   -344.343645023 Eh
Final COS-X integration done in                =     0.673 sec

----------------
TOTAL SCF ENERGY
----------------

Total Energy       :         -344.34364502 Eh           -9370.06695 eV

Components:
Nuclear Repulsion  :          297.85245762 Eh            8104.97742 eV
Electronic Energy  :         -642.19610264 Eh          -17475.04437 eV
One Electron Energy:        -1058.35406888 Eh          -28799.27834 eV
Two Electron Energy:          416.15796624 Eh           11324.23397 eV
Max COSX asymmetry :            0.00000043 Eh               0.00001 eV

Virial components:
Potential Energy   :         -686.22072767 Eh          -18673.01532 eV
Kinetic Energy     :          341.87708265 Eh            9302.94837 eV
Virial Ratio       :            2.00721476


DFT components:
N(Alpha)           :       26.999990224581 electrons
N(Beta)            :       25.999991519665 electrons
N(Total)           :       52.999981744247 electrons
E(X)               :      -33.523181324588 Eh       
E(C)               :       -1.773475243796 Eh       
E(XC)              :      -35.296656568384 Eh       
DFET-embed. en.    :        0.000000000000 Eh       

---------------
SCF CONVERGENCE
---------------

  Last Energy change         ...   -8.0323e-09  Tolerance :   1.0000e-08
  Last Orbital Gradient      ...    6.7160e-06  Tolerance :   1.0000e-05
  Last Orbital Rotation      ...    3.7729e-03

             **** THE GBW FILE WAS UPDATED (path_opt8_orca.gbw) ****
             **** DENSITY path_opt8_orca.scfp WAS UPDATED ****
             **** ENERGY FILE WAS UPDATED (path_opt8_orca.en.tmp) ****
----------------------
UHF SPIN CONTAMINATION
----------------------

Warning: in a DFT calculation there is little theoretical justification to 
         calculate <S**2> as in Hartree-Fock theory. We will do it anyways
         but you should keep in mind that the values have only limited relevance

Expectation value of <S**2>     :     0.752094
Ideal value S*(S+1) for S=0.5   :     0.750000
Deviation                       :     0.002094

             **** THE GBW FILE WAS UPDATED (path_opt8_orca.gbw) ****
             **** DENSITY path_opt8_orca.scfp WAS UPDATED ****
----------------
ORBITAL ENERGIES
----------------
                 SPIN UP ORBITALS
  NO   OCC          E(Eh)            E(eV) 
   0   1.0000     -19.240006      -523.5472 
   1   1.0000     -19.236640      -523.4556 
   2   1.0000     -10.300806      -280.2992 
   3   1.0000     -10.300312      -280.2857 
   4   1.0000     -10.251128      -278.9474 
   5   1.0000     -10.246052      -278.8092 
   6   1.0000     -10.235193      -278.5138 
   7   1.0000      -1.147854       -31.2347 
   8   1.0000      -0.981992       -26.7214 
   9   1.0000      -0.850865       -23.1532 
  10   1.0000      -0.767875       -20.8949 
  11   1.0000      -0.690925       -18.8010 
  12   1.0000      -0.607639       -16.5347 
  13   1.0000      -0.578331       -15.7372 
  14   1.0000      -0.572870       -15.5886 
  15   1.0000      -0.484821       -13.1927 
  16   1.0000      -0.482260       -13.1229 
  17   1.0000      -0.454560       -12.3692 
  18   1.0000      -0.440071       -11.9750 
  19   1.0000      -0.416825       -11.3424 
  20   1.0000      -0.408787       -11.1237 
  21   1.0000      -0.396787       -10.7971 
  22   1.0000      -0.378830       -10.3085 
  23   1.0000      -0.340813        -9.2740 
  24   1.0000      -0.319635        -8.6977 
  25   1.0000      -0.318585        -8.6691 
  26   1.0000      -0.247015        -6.7216 
  27   0.0000      -0.011544        -0.3141 
  28   0.0000       0.070405         1.9158 
  29   0.0000       0.097814         2.6617 
  30   0.0000       0.105806         2.8791 
  31   0.0000       0.114754         3.1226 
  32   0.0000       0.125735         3.4214 
  33   0.0000       0.134459         3.6588 
  34   0.0000       0.143139         3.8950 
  35   0.0000       0.147453         4.0124 
  36   0.0000       0.184381         5.0173 
  37   0.0000       0.213972         5.8225 
  38   0.0000       0.224163         6.0998 
  39   0.0000       0.295438         8.0393 
  40   0.0000       0.307524         8.3682 
  41   0.0000       0.380211        10.3461 
  42   0.0000       0.397288        10.8108 
  43   0.0000       0.447428        12.1751 
  44   0.0000       0.465225        12.6594 
  45   0.0000       0.478411        13.0182 
  46   0.0000       0.493985        13.4420 
  47   0.0000       0.507389        13.8067 
  48   0.0000       0.536754        14.6058 
  49   0.0000       0.555359        15.1121 
  50   0.0000       0.559308        15.2195 
  51   0.0000       0.570286        15.5183 
  52   0.0000       0.606128        16.4936 
  53   0.0000       0.613975        16.7071 
  54   0.0000       0.631130        17.1739 
  55   0.0000       0.646595        17.5947 
  56   0.0000       0.662010        18.0142 
  57   0.0000       0.674425        18.3520 
  58   0.0000       0.683003        18.5855 
  59   0.0000       0.684624        18.6296 
  60   0.0000       0.696732        18.9590 
  61   0.0000       0.720745        19.6125 
  62   0.0000       0.758179        20.6311 
  63   0.0000       0.810974        22.0677 
  64   0.0000       0.857091        23.3226 
  65   0.0000       0.896019        24.3819 
  66   0.0000       0.924759        25.1640 
  67   0.0000       0.937817        25.5193 
  68   0.0000       0.969475        26.3808 
  69   0.0000       1.009848        27.4794 
  70   0.0000       1.030393        28.0384 
  71   0.0000       1.045623        28.4529 
  72   0.0000       1.094004        29.7694 
  73   0.0000       1.155235        31.4356 
  74   0.0000       1.210792        32.9473 
  75   0.0000       1.239825        33.7374 
  76   0.0000       1.271750        34.6061 
  77   0.0000       1.288419        35.0597 
  78   0.0000       1.348838        36.7038 
  79   0.0000       1.445613        39.3371 
  80   0.0000       1.480866        40.2964 
  81   0.0000       1.523090        41.4454 
  82   0.0000       1.542835        41.9827 
  83   0.0000       1.552921        42.2571 
  84   0.0000       1.619559        44.0704 
  85   0.0000       1.649538        44.8862 
  86   0.0000       1.671367        45.4802 
  87   0.0000       1.703120        46.3443 
  88   0.0000       1.709398        46.5151 
  89   0.0000       1.735010        47.2120 
  90   0.0000       1.773400        48.2567 
  91   0.0000       1.798022        48.9267 
  92   0.0000       1.815172        49.3933 
  93   0.0000       1.834769        49.9266 
  94   0.0000       1.854914        50.4748 
  95   0.0000       1.875400        51.0322 
  96   0.0000       1.946241        52.9599 
  97   0.0000       1.961708        53.3808 
  98   0.0000       1.984959        54.0135 
  99   0.0000       2.015720        54.8505 
 100   0.0000       2.035337        55.3843 
 101   0.0000       2.102703        57.2175 
 102   0.0000       2.126387        57.8619 
 103   0.0000       2.151017        58.5321 
 104   0.0000       2.212572        60.2071 
 105   0.0000       2.238448        60.9113 
 106   0.0000       2.266608        61.6775 
 107   0.0000       2.267993        61.7152 
 108   0.0000       2.331349        63.4392 
 109   0.0000       2.390996        65.0623 
 110   0.0000       2.424330        65.9694 
 111   0.0000       2.474062        67.3227 
 112   0.0000       2.521524        68.6142 
 113   0.0000       2.597651        70.6857 
 114   0.0000       2.603079        70.8334 
 115   0.0000       2.609741        71.0147 
 116   0.0000       2.678793        72.8937 
 117   0.0000       2.743141        74.6447 
 118   0.0000       2.753928        74.9382 
 119   0.0000       2.799758        76.1853 
 120   0.0000       2.816561        76.6425 
 121   0.0000       2.882686        78.4419 
 122   0.0000       2.899201        78.8913 
 123   0.0000       2.906028        79.0771 
 124   0.0000       2.973997        80.9266 
 125   0.0000       2.997081        81.5547 
 126   0.0000       3.044629        82.8486 
 127   0.0000       3.114558        84.7514 
 128   0.0000       3.179437        86.5169 
 129   0.0000       3.367746        91.6410 
 130   0.0000       3.406960        92.7081 
 131   0.0000       3.472260        94.4850 
 132   0.0000       3.673795        99.9691 

                 SPIN DOWN ORBITALS
  NO   OCC          E(Eh)            E(eV) 
   0   1.0000     -19.236742      -523.4584 
   1   1.0000     -19.213201      -522.8178 
   2   1.0000     -10.300792      -280.2988 
   3   1.0000     -10.300301      -280.2855 
   4   1.0000     -10.251125      -278.9473 
   5   1.0000     -10.246050      -278.8092 
   6   1.0000     -10.235193      -278.5138 
   7   1.0000      -1.147924       -31.2366 
   8   1.0000      -0.904402       -24.6100 
   9   1.0000      -0.850595       -23.1459 
  10   1.0000      -0.767861       -20.8945 
  11   1.0000      -0.690942       -18.8015 
  12   1.0000      -0.607588       -16.5333 
  13   1.0000      -0.577911       -15.7258 
  14   1.0000      -0.572855       -15.5882 
  15   1.0000      -0.484193       -13.1756 
  16   1.0000      -0.481728       -13.1085 
  17   1.0000      -0.451058       -12.2739 
  18   1.0000      -0.423800       -11.5322 
  19   1.0000      -0.412362       -11.2209 
  20   1.0000      -0.407291       -11.0830 
  21   1.0000      -0.378112       -10.2890 
  22   1.0000      -0.340534        -9.2664 
  23   1.0000      -0.318906        -8.6779 
  24   1.0000      -0.291178        -7.9234 
  25   1.0000      -0.246690        -6.7128 
  26   0.0000      -0.108519        -2.9529 
  27   0.0000      -0.011545        -0.3141 
  28   0.0000       0.071496         1.9455 
  29   0.0000       0.098243         2.6733 
  30   0.0000       0.106365         2.8943 
  31   0.0000       0.116786         3.1779 
  32   0.0000       0.128156         3.4873 
  33   0.0000       0.135389         3.6841 
  34   0.0000       0.143741         3.9114 
  35   0.0000       0.148001         4.0273 
  36   0.0000       0.187258         5.0956 
  37   0.0000       0.215647         5.8681 
  38   0.0000       0.225626         6.1396 
  39   0.0000       0.295760         8.0480 
  40   0.0000       0.307592         8.3700 
  41   0.0000       0.380424        10.3519 
  42   0.0000       0.397565        10.8183 
  43   0.0000       0.447578        12.1792 
  44   0.0000       0.465475        12.6662 
  45   0.0000       0.479439        13.0462 
  46   0.0000       0.494756        13.4630 
  47   0.0000       0.509256        13.8576 
  48   0.0000       0.537746        14.6328 
  49   0.0000       0.555665        15.1204 
  50   0.0000       0.560685        15.2570 
  51   0.0000       0.574350        15.6288 
  52   0.0000       0.606709        16.5094 
  53   0.0000       0.614346        16.7172 
  54   0.0000       0.631904        17.1950 
  55   0.0000       0.647006        17.6059 
  56   0.0000       0.663627        18.0582 
  57   0.0000       0.675021        18.3683 
  58   0.0000       0.683449        18.5976 
  59   0.0000       0.684876        18.6364 
  60   0.0000       0.696870        18.9628 
  61   0.0000       0.721627        19.6365 
  62   0.0000       0.760402        20.6916 
  63   0.0000       0.811066        22.0702 
  64   0.0000       0.858116        23.3505 
  65   0.0000       0.899393        24.4737 
  66   0.0000       0.946705        25.7611 
  67   0.0000       0.973195        26.4820 
  68   0.0000       1.011801        27.5325 
  69   0.0000       1.024526        27.8788 
  70   0.0000       1.046226        28.4693 
  71   0.0000       1.052545        28.6412 
  72   0.0000       1.098955        29.9041 
  73   0.0000       1.160812        31.5873 
  74   0.0000       1.223679        33.2980 
  75   0.0000       1.242187        33.8016 
  76   0.0000       1.276486        34.7350 
  77   0.0000       1.289395        35.0862 
  78   0.0000       1.349068        36.7100 
  79   0.0000       1.457158        39.6513 
  80   0.0000       1.485137        40.4126 
  81   0.0000       1.523417        41.4543 
  82   0.0000       1.544606        42.0309 
  83   0.0000       1.553012        42.2596 
  84   0.0000       1.620664        44.1005 
  85   0.0000       1.649829        44.8941 
  86   0.0000       1.671439        45.4822 
  87   0.0000       1.703196        46.3463 
  88   0.0000       1.709809        46.5263 
  89   0.0000       1.735487        47.2250 
  90   0.0000       1.773692        48.2646 
  91   0.0000       1.798237        48.9325 
  92   0.0000       1.815201        49.3941 
  93   0.0000       1.834956        49.9317 
  94   0.0000       1.855105        50.4800 
  95   0.0000       1.875431        51.0331 
  96   0.0000       1.946653        52.9711 
  97   0.0000       1.961722        53.3812 
  98   0.0000       1.985313        54.0231 
  99   0.0000       2.015897        54.8553 
 100   0.0000       2.036171        55.4070 
 101   0.0000       2.102744        57.2186 
 102   0.0000       2.126431        57.8631 
 103   0.0000       2.151288        58.5395 
 104   0.0000       2.212588        60.2076 
 105   0.0000       2.240625        60.9705 
 106   0.0000       2.267856        61.7115 
 107   0.0000       2.269092        61.7451 
 108   0.0000       2.341211        63.7076 
 109   0.0000       2.391083        65.0647 
 110   0.0000       2.424509        65.9742 
 111   0.0000       2.474172        67.3256 
 112   0.0000       2.521666        68.6180 
 113   0.0000       2.605829        70.9082 
 114   0.0000       2.678319        72.8808 
 115   0.0000       2.690862        73.2221 
 116   0.0000       2.702053        73.5266 
 117   0.0000       2.743218        74.6468 
 118   0.0000       2.754014        74.9405 
 119   0.0000       2.800017        76.1923 
 120   0.0000       2.816691        76.6461 
 121   0.0000       2.884089        78.4800 
 122   0.0000       2.906014        79.0767 
 123   0.0000       2.975951        80.9798 
 124   0.0000       2.982071        81.1463 
 125   0.0000       3.000307        81.6425 
 126   0.0000       3.044704        82.8506 
 127   0.0000       3.114924        84.7614 
 128   0.0000       3.179511        86.5189 
 129   0.0000       3.367705        91.6399 
 130   0.0000       3.406961        92.7081 
 131   0.0000       3.472389        94.4885 
 132   0.0000       3.701984       100.7361 

                    ********************************
                    * MULLIKEN POPULATION ANALYSIS *
                    ********************************

--------------------------------------------
MULLIKEN ATOMIC CHARGES AND SPIN POPULATIONS
--------------------------------------------
   0 O :   -0.237845    1.027424
   1 O :   -0.347866   -0.001608
   2 C :   -0.012156    0.000175
   3 C :    0.085333    0.000678
   4 C :    0.012623   -0.000123
   5 C :   -0.127222    0.000037
   6 C :    0.118806    0.000192
   7 H :    0.206285   -0.027273
   8 H :    0.053761    0.000073
   9 H :    0.050311    0.000448
  10 H :    0.040603    0.000012
  11 H :    0.028923   -0.000039
  12 H :    0.066029    0.000009
  13 H :    0.062414   -0.000006
Sum of atomic charges         :    0.0000000
Sum of atomic spin populations:    1.0000000

-----------------------------------------------------
MULLIKEN REDUCED ORBITAL CHARGES AND SPIN POPULATIONS
-----------------------------------------------------
CHARGE
  0 O s       :     3.880916  s :     3.880916
      pz      :     1.535013  p :     4.351170
      px      :     1.295369
      py      :     1.520788
      dz2     :     0.000786  d :     0.005760
      dxz     :     0.001060
      dyz     :     0.000547
      dx2y2   :     0.000686
      dxy     :     0.002680
  1 O s       :     3.869443  s :     3.869443
      pz      :     1.411211  p :     4.456712
      px      :     1.689861
      py      :     1.355641
      dz2     :     0.005254  d :     0.021711
      dxz     :     0.002869
      dyz     :     0.005868
      dx2y2   :     0.004145
      dxy     :     0.003574
  2 C s       :     3.228738  s :     3.228738
      pz      :     0.793108  p :     2.706655
      px      :     0.977203
      py      :     0.936344
      dz2     :     0.020454  d :     0.076763
      dxz     :     0.017606
      dyz     :     0.019441
      dx2y2   :     0.009180
      dxy     :     0.010083
  3 C s       :     3.192271  s :     3.192271
      pz      :     0.955128  p :     2.649066
      px      :     0.948271
      py      :     0.745667
      dz2     :     0.008669  d :     0.073331
      dxz     :     0.010835
      dyz     :     0.014115
      dx2y2   :     0.020297
      dxy     :     0.019415
  4 C s       :     3.147538  s :     3.147538
      pz      :     0.998490  p :     2.804482
      px      :     0.844812
      py      :     0.961181
      dz2     :     0.005348  d :     0.035357
      dxz     :     0.007780
      dyz     :     0.004817
      dx2y2   :     0.009004
      dxy     :     0.008408
  5 C s       :     3.214670  s :     3.214670
      pz      :     0.958642  p :     2.872103
      px      :     0.947875
      py      :     0.965586
      dz2     :     0.007670  d :     0.040449
      dxz     :     0.008116
      dyz     :     0.006097
      dx2y2   :     0.008412
      dxy     :     0.010153
  6 C s       :     2.920399  s :     2.920399
      pz      :     0.986075  p :     2.923866
      px      :     0.936812
      py      :     1.000979
      dz2     :     0.008049  d :     0.036929
      dxz     :     0.008815
      dyz     :     0.006022
      dx2y2   :     0.007122
      dxy     :     0.006922
  7 H s       :     0.728467  s :     0.728467
      pz      :     0.016179  p :     0.065248
      px      :     0.028311
      py      :     0.020758
  8 H s       :     0.923849  s :     0.923849
      pz      :     0.002415  p :     0.022390
      px      :     0.015044
      py      :     0.004931
  9 H s       :     0.926958  s :     0.926958
      pz      :     0.007662  p :     0.022731
      px      :     0.004171
      py      :     0.010898
 10 H s       :     0.934718  s :     0.934718
      pz      :     0.007945  p :     0.024679
      px      :     0.011825
      py      :     0.004909
 11 H s       :     0.947539  s :     0.947539
      pz      :     0.004768  p :     0.023539
      px      :     0.010276
      py      :     0.008494
 12 H s       :     0.910683  s :     0.910683
      pz      :     0.012959  p :     0.023288
      px      :     0.004370
      py      :     0.005958
 13 H s       :     0.914381  s :     0.914381
      pz      :     0.004208  p :     0.023205
      px      :     0.005570
      py      :     0.013427

SPIN
  0 O s       :     0.015249  s :     0.015249
      pz      :     0.400169  p :     1.011741
      px      :     0.350394
      py      :     0.261178
      dz2     :     0.000033  d :     0.000434
      dxz     :     0.000028
      dyz     :     0.000255
      dx2y2   :     0.000230
      dxy     :    -0.000112
  1 O s       :    -0.000092  s :    -0.000092
      pz      :    -0.000368  p :    -0.001509
      px      :    -0.001067
      py      :    -0.000074
      dz2     :     0.000003  d :    -0.000007
      dxz     :    -0.000009
      dyz     :    -0.000000
      dx2y2   :    -0.000003
      dxy     :     0.000002
  2 C s       :     0.000509  s :     0.000509
      pz      :    -0.000118  p :    -0.000337
      px      :    -0.000170
      py      :    -0.000049
      dz2     :    -0.000003  d :     0.000003
      dxz     :    -0.000003
      dyz     :     0.000012
      dx2y2   :    -0.000000
      dxy     :    -0.000003
  3 C s       :     0.000594  s :     0.000594
      pz      :    -0.000212  p :     0.000081
      px      :    -0.000068
      py      :     0.000360
      dz2     :     0.000000  d :     0.000003
      dxz     :    -0.000000
      dyz     :    -0.000002
      dx2y2   :     0.000005
      dxy     :    -0.000000
  4 C s       :    -0.000026  s :    -0.000026
      pz      :    -0.000089  p :    -0.000100
      px      :     0.000034
      py      :    -0.000044
      dz2     :     0.000001  d :     0.000002
      dxz     :     0.000000
      dyz     :     0.000001
      dx2y2   :    -0.000001
      dxy     :     0.000001
  5 C s       :     0.000008  s :     0.000008
      pz      :     0.000061  p :     0.000033
      px      :    -0.000012
      py      :    -0.000016
      dz2     :    -0.000001  d :    -0.000005
      dxz     :    -0.000004
      dyz     :    -0.000000
      dx2y2   :     0.000000
      dxy     :     0.000000
  6 C s       :     0.000067  s :     0.000067
      pz      :    -0.000024  p :     0.000125
      px      :     0.000092
      py      :     0.000056
      dz2     :     0.000000  d :     0.000000
      dxz     :    -0.000001
      dyz     :     0.000001
      dx2y2   :    -0.000000
      dxy     :     0.000000
  7 H s       :    -0.033016  s :    -0.033016
      pz      :     0.002314  p :     0.005743
      px      :     0.002054
      py      :     0.001376
  8 H s       :     0.000063  s :     0.000063
      pz      :    -0.000000  p :     0.000010
      px      :     0.000010
      py      :    -0.000000
  9 H s       :     0.000443  s :     0.000443
      pz      :     0.000006  p :     0.000005
      px      :    -0.000004
      py      :     0.000003
 10 H s       :     0.000015  s :     0.000015
      pz      :    -0.000001  p :    -0.000003
      px      :     0.000000
      py      :    -0.000002
 11 H s       :    -0.000042  s :    -0.000042
      pz      :     0.000001  p :     0.000003
      px      :     0.000001
      py      :     0.000001
 12 H s       :     0.000009  s :     0.000009
      pz      :     0.000000  p :     0.000000
      px      :    -0.000001
      py      :     0.000001
 13 H s       :    -0.000006  s :    -0.000006
      pz      :     0.000001  p :     0.000000
      px      :    -0.000001
      py      :     0.000000


                     *******************************
                     * LOEWDIN POPULATION ANALYSIS *
                     *******************************

-------------------------------------------
LOEWDIN ATOMIC CHARGES AND SPIN POPULATIONS
-------------------------------------------
   0 O :   -0.108206    1.001208
   1 O :   -0.149262   -0.002226
   2 C :    0.048385    0.000145
   3 C :    0.053561    0.000336
   4 C :   -0.065936   -0.000095
   5 C :    0.005778    0.000118
   6 C :   -0.044983    0.000134
   7 H :    0.053514   -0.000070
   8 H :    0.024872    0.000154
   9 H :    0.028677    0.000330
  10 H :    0.036459   -0.000003
  11 H :    0.024233   -0.000028
  12 H :    0.045516   -0.000004
  13 H :    0.047390    0.000001

----------------------------------------------------
LOEWDIN REDUCED ORBITAL CHARGES AND SPIN POPULATIONS
----------------------------------------------------
CHARGE
  0 O s       :     3.711726  s :     3.711726
      pz      :     1.519939  p :     4.387152
      px      :     1.328854
      py      :     1.538359
      dz2     :     0.001373  d :     0.009328
      dxz     :     0.001438
      dyz     :     0.000700
      dx2y2   :     0.000670
      dxy     :     0.005146
  1 O s       :     3.541763  s :     3.541763
      pz      :     1.463974  p :     4.571147
      px      :     1.682078
      py      :     1.425094
      dz2     :     0.008570  d :     0.036351
      dxz     :     0.004458
      dyz     :     0.010928
      dx2y2   :     0.006661
      dxy     :     0.005735
  2 C s       :     2.850003  s :     2.850003
      pz      :     0.879410  p :     2.931473
      px      :     1.051535
      py      :     1.000528
      dz2     :     0.041423  d :     0.170138
      dxz     :     0.041992
      dyz     :     0.044047
      dx2y2   :     0.019236
      dxy     :     0.023440
  3 C s       :     2.855176  s :     2.855176
      pz      :     1.021354  p :     2.927990
      px      :     1.016599
      py      :     0.890038
      dz2     :     0.019064  d :     0.163273
      dxz     :     0.025273
      dyz     :     0.030780
      dx2y2   :     0.048693
      dxy     :     0.039461
  4 C s       :     2.868430  s :     2.868430
      pz      :     1.042978  p :     3.104590
      px      :     1.022134
      py      :     1.039479
      dz2     :     0.011628  d :     0.092916
      dxz     :     0.020611
      dyz     :     0.013298
      dx2y2   :     0.025527
      dxy     :     0.021852
  5 C s       :     2.878597  s :     2.878597
      pz      :     0.983140  p :     3.016307
      px      :     0.994531
      py      :     1.038635
      dz2     :     0.016290  d :     0.099319
      dxz     :     0.021191
      dyz     :     0.015195
      dx2y2   :     0.021274
      dxy     :     0.025369
  6 C s       :     2.835497  s :     2.835497
      pz      :     1.036804  p :     3.113143
      px      :     1.025827
      py      :     1.050512
      dz2     :     0.020896  d :     0.096343
      dxz     :     0.024225
      dyz     :     0.014851
      dx2y2   :     0.018831
      dxy     :     0.017540
  7 H s       :     0.759370  s :     0.759370
      pz      :     0.043621  p :     0.187116
      px      :     0.082530
      py      :     0.060965
  8 H s       :     0.903497  s :     0.903497
      pz      :     0.010959  p :     0.071631
      px      :     0.044424
      py      :     0.016248
[...]
      px      :     0.945974
      py      :     0.964970
      dz2     :     0.007387  d :     0.039772
      dxz     :     0.008002
      dyz     :     0.006066
      dx2y2   :     0.008297
      dxy     :     0.010019
  6 C s       :     2.930112  s :     2.930112
      pz      :     0.985902  p :     2.920195
      px      :     0.934106
      py      :     1.000187
      dz2     :     0.007938  d :     0.036466
      dxz     :     0.008758
      dyz     :     0.005969
      dx2y2   :     0.006929
      dxy     :     0.006873
  7 H s       :     0.737191  s :     0.737191
      pz      :     0.017191  p :     0.067805
      px      :     0.029042
      py      :     0.021571
  8 H s       :     0.922873  s :     0.922873
      pz      :     0.002422  p :     0.022372
      px      :     0.015064
      py      :     0.004886
  9 H s       :     0.925891  s :     0.925891
      pz      :     0.007718  p :     0.022713
      px      :     0.004162
      py      :     0.010833
 10 H s       :     0.933892  s :     0.933892
      pz      :     0.007939  p :     0.024645
      px      :     0.011818
      py      :     0.004888
 11 H s       :     0.945028  s :     0.945028
      pz      :     0.004723  p :     0.023493
      px      :     0.010229
      py      :     0.008541
 12 H s       :     0.910267  s :     0.910267
      pz      :     0.012853  p :     0.023224
      px      :     0.004395
      py      :     0.005975
 13 H s       :     0.914943  s :     0.914943
      pz      :     0.004199  p :     0.023121
      px      :     0.005607
      py      :     0.013315

SPIN
  0 O s       :     0.015768  s :     0.015768
      pz      :     0.400738  p :     1.009661
      px      :     0.345779
      py      :     0.263144
      dz2     :     0.000035  d :     0.000452
      dxz     :     0.000026
      dyz     :     0.000266
      dx2y2   :     0.000245
      dxy     :    -0.000120
  1 O s       :    -0.000078  s :    -0.000078
      pz      :    -0.000324  p :    -0.001338
      px      :    -0.000953
      py      :    -0.000061
      dz2     :     0.000003  d :    -0.000006
      dxz     :    -0.000008
      dyz     :    -0.000000
      dx2y2   :    -0.000003
      dxy     :     0.000002
  2 C s       :     0.000486  s :     0.000486
      pz      :    -0.000138  p :    -0.000332
      px      :    -0.000149
      py      :    -0.000045
      dz2     :    -0.000002  d :     0.000004
      dxz     :    -0.000002
      dyz     :     0.000011
      dx2y2   :    -0.000000
      dxy     :    -0.000002
  3 C s       :     0.000562  s :     0.000562
      pz      :    -0.000195  p :     0.000077
      px      :    -0.000061
      py      :     0.000333
      dz2     :     0.000000  d :     0.000004
      dxz     :    -0.000000
      dyz     :    -0.000002
      dx2y2   :     0.000005
      dxy     :    -0.000000
  4 C s       :    -0.000028  s :    -0.000028
      pz      :    -0.000096  p :    -0.000105
      px      :     0.000035
      py      :    -0.000044
      dz2     :     0.000001  d :     0.000002
      dxz     :     0.000000
      dyz     :     0.000001
      dx2y2   :    -0.000001
      dxy     :     0.000001
  5 C s       :     0.000013  s :     0.000013
      pz      :     0.000075  p :     0.000057
      px      :    -0.000007
      py      :    -0.000011
      dz2     :    -0.000001  d :    -0.000004
      dxz     :    -0.000003
      dyz     :    -0.000000
      dx2y2   :     0.000000
      dxy     :     0.000000
  6 C s       :     0.000062  s :     0.000062
      pz      :    -0.000024  p :     0.000122
      px      :     0.000090
      py      :     0.000056
      dz2     :     0.000000  d :     0.000001
      dxz     :    -0.000001
      dyz     :     0.000001
      dx2y2   :    -0.000000
      dxy     :     0.000000
  7 H s       :    -0.032311  s :    -0.032311
      pz      :     0.002557  p :     0.006443
      px      :     0.002310
      py      :     0.001576
  8 H s       :     0.000068  s :     0.000068
      pz      :     0.000000  p :     0.000010
      px      :     0.000010
      py      :     0.000000
  9 H s       :     0.000423  s :     0.000423
      pz      :     0.000006  p :     0.000005
      px      :    -0.000003
      py      :     0.000003
 10 H s       :     0.000017  s :     0.000017
      pz      :    -0.000001  p :    -0.000003
      px      :     0.000000
      py      :    -0.000002
 11 H s       :    -0.000041  s :    -0.000041
      pz      :     0.000001  p :     0.000003
      px      :     0.000001
      py      :     0.000001
 12 H s       :     0.000012  s :     0.000012
      pz      :     0.000000  p :     0.000000
      px      :    -0.000001
      py      :     0.000001
 13 H s       :    -0.000006  s :    -0.000006
      pz      :     0.000001  p :     0.000001
      px      :    -0.000000
      py      :     0.000000


                     *******************************
                     * LOEWDIN POPULATION ANALYSIS *
                     *******************************

-------------------------------------------
LOEWDIN ATOMIC CHARGES AND SPIN POPULATIONS
-------------------------------------------
   0 O :   -0.090518    0.997742
   1 O :   -0.153941   -0.001978
   2 C :    0.049406    0.000140
   3 C :    0.054884    0.000316
   4 C :   -0.066344   -0.000098
   5 C :    0.006223    0.000136
   6 C :   -0.044131    0.000136
   7 H :    0.039533    0.003166
   8 H :    0.025042    0.000152
   9 H :    0.028713    0.000316
  10 H :    0.035437   -0.000002
  11 H :    0.024842   -0.000026
  12 H :    0.044837   -0.000002
  13 H :    0.046017    0.000001

----------------------------------------------------
LOEWDIN REDUCED ORBITAL CHARGES AND SPIN POPULATIONS
----------------------------------------------------
CHARGE
  0 O s       :     3.694360  s :     3.694360
      pz      :     1.516336  p :     4.386084
      px      :     1.332324
      py      :     1.537424
      dz2     :     0.001493  d :     0.010074
      dxz     :     0.001535
      dyz     :     0.000740
      dx2y2   :     0.000745
      dxy     :     0.005560
  1 O s       :     3.545883  s :     3.545883
      pz      :     1.466218  p :     4.572210
      px      :     1.683859
      py      :     1.422133
      dz2     :     0.008447  d :     0.035848
      dxz     :     0.004389
      dyz     :     0.010786
      dx2y2   :     0.006573
      dxy     :     0.005653
  2 C s       :     2.853407  s :     2.853407
      pz      :     0.879030  p :     2.929470
      px      :     1.051114
      py      :     0.999327
      dz2     :     0.040624  d :     0.167717
      dxz     :     0.041522
      dyz     :     0.043446
      dx2y2   :     0.019022
      dxy     :     0.023103
  3 C s       :     2.859220  s :     2.859220
      pz      :     1.021735  p :     2.925703
      px      :     1.015456
      py      :     0.888512
      dz2     :     0.018748  d :     0.160193
      dxz     :     0.024676
      dyz     :     0.030437
      dx2y2   :     0.047938
      dxy     :     0.038393
  4 C s       :     2.873202  s :     2.873202
      pz      :     1.043183  p :     3.102529
      px      :     1.020485
      py      :     1.038861
      dz2     :     0.010953  d :     0.090614
      dxz     :     0.019840
      dyz     :     0.012854
      dx2y2   :     0.025427
      dxy     :     0.021538
  5 C s       :     2.883069  s :     2.883069
      pz      :     0.979621  p :     3.013364
      px      :     0.993556
      py      :     1.040187
      dz2     :     0.015704  d :     0.097344
      dxz     :     0.020744
      dyz     :     0.014879
      dx2y2   :     0.021157
      dxy     :     0.024860
  6 C s       :     2.839247  s :     2.839247
      pz      :     1.036636  p :     3.110108
      px      :     1.023015
      py      :     1.050457
      dz2     :     0.020388  d :     0.094776
      dxz     :     0.024115
      dyz     :     0.014716
      dx2y2   :     0.018191
      dxy     :     0.017365
  7 H s       :     0.764872  s :     0.764872
      pz      :     0.046793  p :     0.195594
      px      :     0.084818
      py      :     0.063984
  8 H s       :     0.903308  s :     0.903308
      pz      :     0.010944  p :     0.071649
      px      :     0.044568
      py      :     0.016137
  9 H s       :     0.900202  s :     0.900202
      pz      :     0.023797  p :     0.071085
      px      :     0.015526
      py      :     0.031763
 10 H s       :     0.892054  s :     0.892054
      pz      :     0.023307  p :     0.072509
      px      :     0.034596
      py      :     0.014606
 11 H s       :     0.905634  s :     0.905634
      pz      :     0.015123  p :     0.069523
      px      :     0.030910
      py      :     0.023491
 12 H s       :     0.888427  s :     0.888427
      pz      :     0.036593  p :     0.066737
      px      :     0.013397
      py      :     0.016747
 13 H s       :     0.886804  s :     0.886804
      pz      :     0.012446  p :     0.067179
      px      :     0.017039
      py      :     0.037694

SPIN
  0 O s       :     0.009782  s :     0.009782
      pz      :     0.394902  p :     0.987710
      px      :     0.336325
      py      :     0.256483
      dz2     :    -0.000014  d :     0.000250
      dxz     :     0.000157
      dyz     :     0.000039
      dx2y2   :     0.000060
      dxy     :     0.000008
  1 O s       :    -0.000260  s :    -0.000260
      pz      :    -0.000417  p :    -0.001710
      px      :    -0.001187
      py      :    -0.000106
      dz2     :     0.000002  d :    -0.000008
      dxz     :    -0.000009
      dyz     :    -0.000000
      dx2y2   :    -0.000003
      dxy     :     0.000002
  2 C s       :     0.000003  s :     0.000003
      pz      :    -0.000003  p :     0.000146
      px      :     0.000151
      py      :    -0.000003
      dz2     :    -0.000016  d :    -0.000008
      dxz     :     0.000002
      dyz     :     0.000017
      dx2y2   :    -0.000004
      dxy     :    -0.000006
  3 C s       :     0.000041  s :     0.000041
      pz      :     0.000104  p :     0.000275
      px      :     0.000047
      py      :     0.000124
      dz2     :    -0.000000  d :     0.000000
      dxz     :    -0.000004
      dyz     :    -0.000005
      dx2y2   :     0.000014
      dxy     :    -0.000005
  4 C s       :     0.000018  s :     0.000018
      pz      :    -0.000131  p :    -0.000118
      px      :     0.000078
      py      :    -0.000066
      dz2     :     0.000002  d :     0.000002
      dxz     :     0.000000
      dyz     :     0.000002
      dx2y2   :    -0.000002
      dxy     :    -0.000000
  5 C s       :    -0.000011  s :    -0.000011
      pz      :     0.000080  p :     0.000161
      px      :     0.000030
      py      :     0.000051
      dz2     :    -0.000003  d :    -0.000014
      dxz     :    -0.000009
      dyz     :    -0.000001
      dx2y2   :     0.000001
      dxy     :    -0.000002
  6 C s       :     0.000021  s :     0.000021
      pz      :     0.000033  p :     0.000118
      px      :     0.000039
      py      :     0.000047
      dz2     :    -0.000002  d :    -0.000002
      dxz     :    -0.000001
      dyz     :     0.000002
      dx2y2   :     0.000001
      dxy     :    -0.000002
  7 H s       :    -0.021492  s :    -0.021492
      pz      :     0.008759  p :     0.024658
      px      :     0.009541
      py      :     0.006358
  8 H s       :     0.000136  s :     0.000136
      pz      :    -0.000004  p :     0.000016
      px      :     0.000024
      py      :    -0.000004
  9 H s       :     0.000283  s :     0.000283
      pz      :     0.000019  p :     0.000033
      px      :     0.000004
      py      :     0.000010
 10 H s       :     0.000002  s :     0.000002
      pz      :    -0.000003  p :    -0.000004
      px      :     0.000001
      py      :    -0.000001
 11 H s       :    -0.000029  s :    -0.000029
      pz      :     0.000001  p :     0.000003
      px      :    -0.000000
      py      :     0.000002
 12 H s       :    -0.000005  s :    -0.000005
      pz      :     0.000000  p :     0.000003
      px      :     0.000002
      py      :     0.000001
 13 H s       :    -0.000002  s :    -0.000002
      pz      :    -0.000000  p :     0.000003
      px      :     0.000002
      py      :     0.000002


                      *****************************
                      * MAYER POPULATION ANALYSIS *
                      *****************************

  NA   - Mulliken gross atomic population
  ZA   - Total nuclear charge
  QA   - Mulliken gross atomic charge
  VA   - Mayer's total valence
  BVA  - Mayer's bonded valence
  FA   - Mayer's free valence

  ATOM       NA         ZA         QA         VA         BVA        FA
  0 O      8.2243     8.0000    -0.2243     1.9815     1.0014     0.9801
  1 O      8.3477     8.0000    -0.3477     1.9880     1.9880     0.0000
  2 C      6.0116     6.0000    -0.0116     3.9630     3.9630    -0.0000
  3 C      5.9182     6.0000     0.0818     3.8618     3.8618     0.0000
  4 C      5.9886     6.0000     0.0114     3.7712     3.7712     0.0000
  5 C      6.1255     6.0000    -0.1255     4.0053     4.0053     0.0000
  6 C      5.8868     6.0000     0.1132     3.7973     3.7973     0.0000
  7 H      0.8050     1.0000     0.1950     1.0431     1.0419     0.0012
  8 H      0.9452     1.0000     0.0548     1.0027     1.0027     0.0000
  9 H      0.9486     1.0000     0.0514     0.9999     0.9999     0.0000
 10 H      0.9585     1.0000     0.0415     0.9908     0.9908     0.0000
 11 H      0.9685     1.0000     0.0315     0.9884     0.9884     0.0000
 12 H      0.9335     1.0000     0.0665     0.9826     0.9826     0.0000
 13 H      0.9381     1.0000     0.0619     0.9827     0.9827     0.0000

  Mayer bond orders larger than 0.100000
B(  0-O ,  7-H ) :   0.9360 B(  1-O ,  2-C ) :   0.9181 B(  1-O ,  3-C ) :   0.8913 
B(  1-O ,  5-C ) :   0.1032 B(  2-C ,  3-C ) :   0.9995 B(  2-C ,  6-C ) :   0.9959 
B(  2-C ,  8-H ) :   0.9735 B(  3-C ,  4-C ) :   0.9712 B(  3-C ,  9-H ) :   0.9850 
B(  4-C ,  5-C ) :   1.8368 B(  4-C , 10-H ) :   0.9946 B(  5-C ,  6-C ) :   1.0225 
B(  5-C , 11-H ) :   0.9658 B(  6-C , 12-H ) :   0.9239 B(  6-C , 13-H ) :   0.9252 



------------------
HIRSHFELD ANALYSIS
------------------

Total integrated alpha density =     26.999992773
Total integrated beta density  =     25.999994216

  ATOM     CHARGE      SPIN    
   0 O   -0.197486    0.962512
   1 O   -0.160656   -0.001806
   2 C    0.050156    0.000535
   3 C    0.046030    0.000602
   4 C   -0.061774   -0.000062
   5 C   -0.016373    0.000083
   6 C   -0.040063    0.000116
   7 H    0.115954    0.036125
   8 H    0.048831    0.000924
   9 H    0.052827    0.000994
  10 H    0.048030   -0.000012
  11 H    0.032370   -0.000018
  12 H    0.041025   -0.000001
  13 H    0.041142    0.000005

  TOTAL   0.000013    0.999999

-------
TIMINGS
-------

Total SCF time: 0 days 0 hours 0 min 5 sec 

Total time                  ....       5.178 sec
Sum of individual times     ....       5.057 sec  ( 97.7%)

Fock matrix formation       ....       4.377 sec  ( 84.5%)
  Split-RI-J                ....       0.382 sec  (  8.7% of F)
  Chain of spheres X        ....       3.148 sec  ( 71.9% of F)
  XC integration            ....       0.819 sec  ( 18.7% of F)
    Basis function eval.    ....       0.225 sec  ( 27.5% of XC)
    Density eval.           ....       0.205 sec  ( 25.0% of XC)
    XC-Functional eval.     ....       0.073 sec  (  8.9% of XC)
    XC-Potential eval.      ....       0.216 sec  ( 26.4% of XC)
Diagonalization             ....       0.063 sec  (  1.2%)
Density matrix formation    ....       0.004 sec  (  0.1%)
Population analysis         ....       0.139 sec  (  2.7%)
Initial guess               ....       0.008 sec  (  0.2%)
Orbital Transformation      ....       0.000 sec  (  0.0%)
Orbital Orthonormalization  ....       0.004 sec  (  0.1%)
DIIS solution               ....       0.039 sec  (  0.8%)
Grid generation             ....       0.426 sec  (  8.2%)

Maximum memory used throughout the entire SCF-calculation: 50.6 MB


-------------------------------------------------------------------------------
                          DFT DISPERSION CORRECTION                            
                                                                               
                              DFTD3 V3.1  Rev 1                                
                          USING Becke-Johnson damping                          
-------------------------------------------------------------------------------
The PBE0 functional is recognized
Active option DFTDOPT                   ...         4   

molecular C6(AA) [au] = 1718.759809 


            DFT-D V3
 parameters
 s6 scaling factor         :     1.0000 
 a1 scaling factor         :     0.4145 
 s8 scaling factor         :     1.2177 
 a2 scaling factor         :     4.8593 
 ad hoc parameters k1-k3   :    16.0000     1.3333    -4.0000 

 Edisp/kcal,au: -6.048313029954  -0.009638599312 
 E6   /kcal   :  -3.853152781 
 E8   /kcal   :  -2.195160249 
 % E8         :  36.293760552 

-------------------------   ----------------
Dispersion correction           -0.009638599
-------------------------   ----------------


-------------------------   --------------------
FINAL SINGLE POINT ENERGY      -344.354101374588
-------------------------   --------------------

                                *** OPTIMIZATION RUN DONE ***

                            ***************************************
                            *     ORCA property calculations      *
                            ***************************************

                                    ---------------------
                                    Active property flags
                                    ---------------------
   (+) Dipole Moment


------------------------------------------------------------------------------
                       ORCA ELECTRIC PROPERTIES CALCULATION
------------------------------------------------------------------------------

Dipole Moment Calculation                       ... on
Quadrupole Moment Calculation                   ... off
Polarizability Calculation                      ... off
GBWName                                         ... path_opt8_orca.gbw
Electron density                                ... path_opt8_orca.scfp
The origin for moment calculation is the CENTER OF MASS  = (-0.380504,  0.081598  0.513849)

-------------
DIPOLE MOMENT
-------------
                                X             Y             Z
Electronic contribution:     -1.18952       0.57676       2.19274
Nuclear contribution   :      1.92325      -0.59656      -3.05519
                        -----------------------------------------
Total Dipole Moment    :      0.73373      -0.01980      -0.86245
                        -----------------------------------------
Magnitude (a.u.)       :      1.13250
Magnitude (Debye)      :      2.87860



--------------------
Rotational spectrum 
--------------------
 
Rotational constants in cm-1:     0.201158     0.058728     0.051058 
Rotational constants in MHz :  6030.573707  1760.628182  1530.666513 

 Dipole components along the rotational axes: 
x,y,z [a.u.] :     1.082313     0.154731    -0.295333 
x,y,z [Debye]:     2.751022     0.393295    -0.750676 

 

Timings for individual modules:

Sum of individual times         ...       50.089 sec (=   0.835 min)
GTO integral calculation        ...        1.208 sec (=   0.020 min)   2.4 %
SCF iterations                  ...       44.746 sec (=   0.746 min)  89.3 %
SCF Gradient evaluation         ...        4.054 sec (=   0.068 min)   8.1 %
Geometry relaxation             ...        0.080 sec (=   0.001 min)   0.2 %
                             ****ORCA TERMINATED NORMALLY****
TOTAL RUN TIME: 0 days 0 hours 0 minutes 50 seconds 912 msec
