
                                 *****************
                                 * O   R   C   A *
                                 *****************

                                            #,                                       
                                            ###                                      
                                            ####                                     
                                            #####                                    
                                            ######                                   
                                           ########,                                 
                                     ,,################,,,,,                         
                               ,,#################################,,                 
                          ,,##########################################,,             
                       ,#########################################, ''#####,          
                    ,#############################################,,   '####,        
                  ,##################################################,,,,####,       
                ,###########''''           ''''###############################       
              ,#####''   ,,,,##########,,,,          '''####'''          '####       
            ,##' ,,,,###########################,,,                        '##       
           ' ,,###''''                  '''############,,,                           
         ,,##''                                '''############,,,,        ,,,,,,###''
      ,#''                                            '''#######################'''  
     '                                                          ''''####''''         
             ,#######,   #######,   ,#######,      ##                                
            ,#'     '#,  ##    ##  ,#'     '#,    #''#        ######   ,####,        
            ##       ##  ##   ,#'  ##            #'  '#       #        #'  '#        
            ##       ##  #######   ##           ,######,      #####,   #    #        
            '#,     ,#'  ##    ##  '#,     ,#' ,#      #,         ##   #,  ,#        
             '#######'   ##     ##  '#######'  #'      '#     #####' # '####'        



                  #######################################################
                  #                        -***-                        #
                  #          Department of theory and spectroscopy      #
                  #    Directorship and core code : Frank Neese         #
                  #        Max Planck Institute fuer Kohlenforschung    #
                  #                Kaiser Wilhelm Platz 1               #
                  #                 D-45470 Muelheim/Ruhr               #
                  #                      Germany                        #
                  #                                                     #
                  #                  All rights reserved                #
                  #                        -***-                        #
                  #######################################################


                         Program Version 5.0.4 -  RELEASE  -


 With contributions from (in alphabetic order):
   Daniel Aravena         : Magnetic Suceptibility
   Michael Atanasov       : Ab Initio Ligand Field Theory (pilot matlab implementation)
   Alexander A. Auer      : GIAO ZORA, VPT2 properties, NMR spectrum
   Ute Becker             : Parallelization
   Giovanni Bistoni       : ED, misc. LED, open-shell LED, HFLD
   Martin Brehm           : Molecular dynamics
   Dmytro Bykov           : SCF Hessian
   Vijay G. Chilkuri      : MRCI spin determinant printing, contributions to CSF-ICE
   Dipayan Datta          : RHF DLPNO-CCSD density
   Achintya Kumar Dutta   : EOM-CC, STEOM-CC
   Dmitry Ganyushin       : Spin-Orbit,Spin-Spin,Magnetic field MRCI
   Miquel Garcia          : C-PCM and meta-GGA Hessian, CC/C-PCM, Gaussian charge scheme
   Yang Guo               : DLPNO-NEVPT2, F12-NEVPT2, CIM, IAO-localization
   Andreas Hansen         : Spin unrestricted coupled pair/coupled cluster methods
   Benjamin Helmich-Paris : MC-RPA, TRAH-SCF, COSX integrals
   Lee Huntington         : MR-EOM, pCC
   Robert Izsak           : Overlap fitted RIJCOSX, COSX-SCS-MP3, EOM
   Marcus Kettner         : VPT2
   Christian Kollmar      : KDIIS, OOCD, Brueckner-CCSD(T), CCSD density, CASPT2, CASPT2-K
   Simone Kossmann        : Meta GGA functionals, TD-DFT gradient, OOMP2, MP2 Hessian
   Martin Krupicka        : Initial AUTO-CI
   Lucas Lang             : DCDCAS
   Marvin Lechner         : AUTO-CI (C++ implementation), FIC-MRCC
   Dagmar Lenk            : GEPOL surface, SMD
   Dimitrios Liakos       : Extrapolation schemes; Compound Job, initial MDCI parallelization
   Dimitrios Manganas     : Further ROCIS development; embedding schemes
   Dimitrios Pantazis     : SARC Basis sets
   Anastasios Papadopoulos: AUTO-CI, single reference methods and gradients
   Taras Petrenko         : DFT Hessian,TD-DFT gradient, ASA, ECA, R-Raman, ABS, FL, XAS/XES, NRVS
   Peter Pinski           : DLPNO-MP2, DLPNO-MP2 Gradient
   Christoph Reimann      : Effective Core Potentials
   Marius Retegan         : Local ZFS, SOC
   Christoph Riplinger    : Optimizer, TS searches, QM/MM, DLPNO-CCSD(T), (RO)-DLPNO pert. Triples
   Tobias Risthaus        : Range-separated hybrids, TD-DFT gradient, RPA, STAB
   Michael Roemelt        : Original ROCIS implementation
   Masaaki Saitow         : Open-shell DLPNO-CCSD energy and density
   Barbara Sandhoefer     : DKH picture change effects
   Avijit Sen             : IP-ROCIS
   Kantharuban Sivalingam : CASSCF convergence, NEVPT2, FIC-MRCI
   Bernardo de Souza      : ESD, SOC TD-DFT
   Georgi Stoychev        : AutoAux, RI-MP2 NMR, DLPNO-MP2 response
   Willem Van den Heuvel  : Paramagnetic NMR
   Boris Wezisla          : Elementary symmetry handling
   Frank Wennmohs         : Technical directorship


 We gratefully acknowledge several colleagues who have allowed us to
 interface, adapt or use parts of their codes:
   Stefan Grimme, W. Hujo, H. Kruse, P. Pracht,  : VdW corrections, initial TS optimization,
                  C. Bannwarth, S. Ehlert          DFT functionals, gCP, sTDA/sTD-DF
   Ed Valeev, F. Pavosevic, A. Kumar             : LibInt (2-el integral package), F12 methods
   Garnet Chan, S. Sharma, J. Yang, R. Olivares  : DMRG
   Ulf Ekstrom                                   : XCFun DFT Library
   Mihaly Kallay                                 : mrcc  (arbitrary order and MRCC methods)
   Jiri Pittner, Ondrej Demel                    : Mk-CCSD
   Frank Weinhold                                : gennbo (NPA and NBO analysis)
   Christopher J. Cramer and Donald G. Truhlar   : smd solvation model
   Lars Goerigk                                  : TD-DFT with DH, B97 family of functionals
   V. Asgeirsson, H. Jonsson                     : NEB implementation
   FAccTs GmbH                                   : IRC, NEB, NEB-TS, DLPNO-Multilevel, CI-OPT
                                                   MM, QMMM, 2- and 3-layer-ONIOM, Crystal-QMMM,
                                                   LR-CPCM, SF, NACMEs, symmetry and pop. for TD-DFT,
                                                   nearIR, NL-DFT gradient (VV10), updates on ESD,
                                                   ML-optimized integration grids
   S Lehtola, MJT Oliveira, MAL Marques          : LibXC Library
   Liviu Ungur et al                             : ANISO software


 Your calculation uses the libint2 library for the computation of 2-el integrals
 For citations please refer to: http://libint.valeyev.net

 Your ORCA version has been built with support for libXC version: 5.1.0
 For citations please refer to: https://tddft.org/programs/libxc/

 This ORCA versions uses:
   CBLAS   interface :  Fast vector & matrix operations
   LAPACKE interface :  Fast linear algebra routines
   SCALAPACK package :  Parallel linear algebra routines
   Shared memory     :  Shared parallel matrices
   BLAS/LAPACK       :  OpenBLAS 0.3.15  USE64BITINT DYNAMIC_ARCH NO_AFFINITY SkylakeX SINGLE_THREADED
        Core in use  :  SkylakeX
   Copyright (c) 2011-2014, The OpenBLAS Project


Your calculation utilizes the atom-pairwise dispersion correction
with the Becke-Johnson damping scheme (D3BJ)
Cite in your paper:
S.Grimme, S.Ehrlich, L.Goerigk, J Comput Chem, (2011), 32, 1456–1465 
S.Grimme, J.Antony, S.Ehrlich and H.Krieg, J.Chem.Phys., 132, (2010), 154104 
   

================================================================================

----- Orbital basis set information -----
Your calculation utilizes the basis: def2-SVP
   F. Weigend and R. Ahlrichs, Phys. Chem. Chem. Phys. 7, 3297 (2005).

----- AuxJ basis set information -----
Your calculation utilizes the auxiliary basis: def2/J
   F. Weigend, Phys. Chem. Chem. Phys. 8, 1057 (2006).

================================================================================
                                        WARNINGS
                       Please study these warnings very carefully!
================================================================================


WARNING: your system is open-shell and RHF/RKS was chosen
  ===> : WILL SWITCH to UHF/UKS


WARNING: Geometry Optimization
  ===> : Switching off AutoStart
         For restart on a previous wavefunction, please use MOREAD

INFO   : the flag for use of the SHARK integral package has been found!

================================================================================
                                       INPUT FILE
================================================================================
NAME = path_opt2_orca.inp
|  1> ! LooseOpt PBE0 RIJCOSX D3BJ def2-SVP def2/J 
|  2> %geom Constraints
|  3> { B 1 5 2.636626491755024 C }
|  4> { B 0 1 1.7323770705479338 C }
|  5>     end
|  6> end
|  7> %geom MaxIter 50 end
|  8> %output 
|  9> xyzfile=True 
| 10> end 
| 11> %scf 
| 12> maxiter 250 
| 13> end
| 14> %output
| 15> Print[P_Hirshfeld] = 1
| 16> end
| 17> % maxcore
| 18> 4000
| 19> %pal nprocs 8
| 20> end
| 21> *xyz 0 2
| 22> O   -2.39848629  -0.77513669   0.89315834 
| 23> O   -1.01363940   0.14895804   1.11433532 
| 24> C   -0.64662414   0.54474887  -0.17376262 
| 25> C    0.55317469   1.37528222   0.19241022 
| 26> C    1.66364853   0.53564666   0.17855591 
| 27> C    1.32193972  -0.69475663  -0.36428281 
| 28> C   -0.06777351  -0.66237117  -0.90740416 
| 29> H   -2.37355418  -1.13001018   1.79416588 
| 30> H   -1.47044718   1.07208604  -0.68277454 
| 31> H    0.49405400   2.39067877   0.58322706 
| 32> H    2.65627233   0.80201939   0.54709108 
| 33> H    2.00650465  -1.53800551  -0.47616541 
| 34> H   -0.05115826  -0.51477052  -2.00358160 
| 35> H   -0.67391093  -1.55426929  -0.69497269 
| 36> *
| 37> 
| 38>                          ****END OF INPUT****
================================================================================

                       *****************************
                       * Geometry Optimization Run *
                       *****************************

Geometry optimization settings:
Update method            Update   .... BFGS
Choice of coordinates    CoordSys .... Z-matrix Internals
Initial Hessian          InHess   .... Almoef's Model

Convergence Tolerances:
Energy Change            TolE     ....  3.0000e-05 Eh
Max. Gradient            TolMAXG  ....  2.0000e-03 Eh/bohr
RMS Gradient             TolRMSG  ....  5.0000e-04 Eh/bohr
Max. Displacement        TolMAXD  ....  1.0000e-02 bohr
RMS Displacement         TolRMSD  ....  7.0000e-03 bohr
Strict Convergence                ....  False
------------------------------------------------------------------------------
                        ORCA OPTIMIZATION COORDINATE SETUP
------------------------------------------------------------------------------

The optimization will be done in new redundant internal coordinates
Making redundant internal coordinates   ...  (new redundants) done
Evaluating the initial hessian          ...  (Almloef) done
Evaluating the coordinates              ...  done
Calculating the B-matrix                .... done
Calculating the G-matrix                .... done
Diagonalizing the G-matrix              .... done
Imposing constraints:
 Iter   0:  RMS(Cart)=    0.0767055687 RMS(Int)=    0.0868498730
 Iter   1:  RMS(Cart)=    0.0208390526 RMS(Int)=    0.0222926844
 Iter   2:  RMS(Cart)=    0.0053548451 RMS(Int)=    0.0057243638
 Iter   3:  RMS(Cart)=    0.0013754295 RMS(Int)=    0.0014700635
 Iter   4:  RMS(Cart)=    0.0003532478 RMS(Int)=    0.0003775342
 Iter   5:  RMS(Cart)=    0.0000907210 RMS(Int)=    0.0000969570
 Iter   6:  RMS(Cart)=    0.0000232988 RMS(Int)=    0.0000249002
 Iter   7:  RMS(Cart)=    0.0000059835 RMS(Int)=    0.0000063948
 Iter   8:  RMS(Cart)=    0.0000015367 RMS(Int)=    0.0000016423
 Iter   9:  RMS(Cart)=    0.0000003946 RMS(Int)=    0.0000004218
 Iter  10:  RMS(Cart)=    0.0000001014 RMS(Int)=    0.0000001083
 Iter  11:  RMS(Cart)=    0.0000000260 RMS(Int)=    0.0000000278
CONVERGED
The first mode is                       ....   35
The number of degrees of freedom        ....   36
Storing new coordinates                 .... done

    -----------------------------------------------------------------
                    Redundant Internal Coordinates


    -----------------------------------------------------------------
         Definition                    Initial Value    Approx d2E/dq
    -----------------------------------------------------------------
      1. B(O   1,O   0)                  1.7324         0.173044 C 
      2. B(C   2,O   1)                  1.3474         0.546153   
      3. B(C   3,C   2)                  1.4942         0.410329   
      4. B(C   4,C   3)                  1.3667         0.619676   
      5. B(C   5,O   1)                  2.6366         0.002262 C 
      6. B(C   5,C   4)                  1.3796         0.630415   
      7. B(C   6,C   2)                  1.4876         0.378302   
      8. B(C   6,C   5)                  1.4604         0.428870   
      9. B(H   7,O   0)                  0.9709         0.503609   
     10. B(H   8,C   2)                  1.1028         0.343734   
     11. B(H   9,C   3)                  1.0897         0.360608   
     12. B(H  10,C   4)                  1.0926         0.357698   
     13. B(H  11,C   5)                  1.0934         0.357613   
     14. B(H  12,C   6)                  1.1072         0.339301   
     15. B(H  13,C   6)                  1.0999         0.348266   
     16. A(O   1,O   0,H   7)           93.2702         0.296320   
     17. A(O   0,O   1,C   2)          104.4455         0.333994   
     18. A(O   1,C   2,C   3)           96.4036         0.391883   
     19. A(C   3,C   2,C   6)          108.4172         0.370040   
     20. A(O   1,C   2,C   6)          103.4415         0.386363   
     21. A(C   3,C   2,H   8)          115.1223         0.326853   
     22. A(C   6,C   2,H   8)          115.6377         0.322518   
     23. A(O   1,C   2,H   8)          115.6180         0.340668   
     24. A(C   2,C   3,C   4)          105.2637         0.403252   
     25. A(C   2,C   3,H   9)          125.4280         0.329447   
     26. A(C   4,C   3,H   9)          128.0226         0.352962   
     27. A(C   5,C   4,H  10)          125.4760         0.353505   
     28. A(C   3,C   4,C   5)          108.7810         0.435329   
     29. A(C   3,C   4,H  10)          125.7103         0.352478   
     30. A(C   4,C   5,C   6)          113.8570         0.407648   
     31. A(C   4,C   5,H  11)          123.1844         0.353491   
     32. A(C   6,C   5,H  11)          122.6054         0.331406   
     33. A(H  12,C   6,H  13)          107.3952         0.286639   
     34. A(C   2,C   6,H  12)          113.2458         0.321833   
     35. A(C   5,C   6,H  12)          112.5383         0.328540   
     36. A(C   2,C   6,H  13)          110.9015         0.323211   
     37. A(C   2,C   6,C   5)           97.5078         0.372865   
     38. A(C   5,C   6,H  13)          115.1992         0.329958   
     39. D(C   2,O   1,O   0,H   7)    166.8410         0.003428   
     40. D(C   3,C   2,O   1,O   0)    177.3623         0.025801   
     41. D(C   6,C   2,O   1,O   0)    -71.9242         0.025801   
     42. D(H   8,C   2,O   1,O   0)     55.5183         0.025801   
     43. D(C   4,C   3,C   2,O   1)     85.1066         0.012469   
     44. D(C   4,C   3,C   2,C   6)    -21.3871         0.012469   
     45. D(H   9,C   3,C   2,H   8)     39.4457         0.012469   
     46. D(H   9,C   3,C   2,O   1)    -82.7740         0.012469   
     47. D(C   4,C   3,C   2,H   8)   -152.6737         0.012469   
     48. D(H   9,C   3,C   2,C   6)    170.7323         0.012469   
     49. D(C   5,C   4,C   3,C   2)      7.9590         0.026570   
     50. D(C   5,C   4,C   3,H   9)    175.4163         0.026570   
     51. D(H  10,C   4,C   3,C   2)   -170.0476         0.026570   
     52. D(H  10,C   4,C   3,H   9)     -2.5903         0.026570   
     53. D(C   6,C   5,C   4,C   3)      8.5891         0.029951   
     54. D(C   6,C   5,C   4,H  10)   -173.3985         0.029951   
     55. D(H  11,C   5,C   4,C   3)   -178.0821         0.029951   
     56. D(H  11,C   5,C   4,H  10)     -0.0696         0.029951   
     57. D(H  12,C   6,C   5,H  11)    -74.7458         0.014541   
     58. D(C   5,C   6,C   2,C   3)     24.1726         0.011411   
     59. D(C   5,C   6,C   2,H   8)    155.1793         0.011411   
     60. D(H  13,C   6,C   2,H   8)    -84.1549         0.011411   
     61. D(H  12,C   6,C   2,C   3)    -94.3421         0.011411   
     62. D(H  12,C   6,C   2,H   8)     36.6646         0.011411   
     63. D(H  13,C   6,C   2,O   1)     43.2753         0.011411   
     64. D(H  12,C   6,C   2,O   1)    164.0948         0.011411   
     65. D(H  13,C   6,C   2,C   3)    144.8384         0.011411   
     66. D(C   2,C   6,C   5,C   4)    -20.4317         0.014541   
     67. D(C   2,C   6,C   5,H  11)    166.1958         0.014541   
     68. D(C   5,C   6,C   2,O   1)    -77.3905         0.011411   
     69. D(H  12,C   6,C   5,C   4)     98.6267         0.014541   
     70. D(H  13,C   6,C   5,C   4)   -137.8001         0.014541   
     71. D(H  13,C   6,C   5,H  11)     48.8274         0.014541   
    -----------------------------------------------------------------

Number of atoms                         .... 14
Number of degrees of freedom            .... 71

         *************************************************************
         *                GEOMETRY OPTIMIZATION CYCLE   1            *
         *************************************************************
---------------------------------
CARTESIAN COORDINATES (ANGSTROEM)
---------------------------------
  O     -2.317069   -0.832955    0.849894
  O     -0.891426    0.132226    1.042506
  C     -0.611774    0.570515   -0.200541
  C      0.565174    1.409001    0.179250
  C      1.628761    0.550772    0.193578
  C      1.223930   -0.666737   -0.313490
  C     -0.116070   -0.648795   -0.893768
  H     -2.239482   -1.223664    1.735330
  H     -1.426788    1.111046   -0.710141
  H      0.517090    2.424852    0.570556
  H      2.626665    0.778221    0.576023
  H      1.883546   -1.536148   -0.380838
  H     -0.099795   -0.548488   -1.996318
  H     -0.742763   -1.519746   -0.652041

----------------------------
CARTESIAN COORDINATES (A.U.)
----------------------------
  NO LB      ZA    FRAG     MASS         X           Y           Z
   0 O     8.0000    0    15.999   -4.378625   -1.574057    1.606066
   1 O     8.0000    0    15.999   -1.684551    0.249870    1.970051
   2 C     6.0000    0    12.011   -1.156085    1.078117   -0.378967
   3 C     6.0000    0    12.011    1.068024    2.662625    0.338734
   4 C     6.0000    0    12.011    3.077912    1.040808    0.365810
   5 C     6.0000    0    12.011    2.312893   -1.259950   -0.592411
   6 C     6.0000    0    12.011   -0.219341   -1.226044   -1.688976
   7 H     1.0000    0     1.008   -4.232008   -2.312390    3.279298
   8 H     1.0000    0     1.008   -2.696239    2.099573   -1.341971
   9 H     1.0000    0     1.008    0.977159    4.582306    1.078195
  10 H     1.0000    0     1.008    4.963678    1.470625    1.088526
  11 H     1.0000    0     1.008    3.559387   -2.902899   -0.719680
  12 H     1.0000    0     1.008   -0.188585   -1.036491   -3.772495
  13 H     1.0000    0     1.008   -1.403619   -2.871903   -1.232179

--------------------------------
INTERNAL COORDINATES (ANGSTROEM)
--------------------------------
 O      0   0   0     0.000000000000     0.00000000     0.00000000
 O      1   0   0     1.679485407867     0.00000000     0.00000000
 C      2   1   0     1.396619806969   104.54588812     0.00000000
 C      3   2   1     1.504455192648    98.13692624   178.43628822
 C      4   3   2     1.392239909228   107.50228592    90.32203385
 C      5   4   3     1.387562986969   110.01359671     9.40547045
 C      6   5   4     1.492425033455   110.63700570     6.97506062
 H      1   2   3     0.968695716492    93.31678909   166.69148693
 H      3   2   1     1.102661338218   111.40427714    55.89057996
 H      4   3   2     1.089616084759   123.95032231   281.23698430
 H      5   4   3     1.091821693841   125.07550629   189.82729569
 H      6   5   4     1.091886227219   124.78538899   180.95021449
 H      7   6   5     1.106194828400   110.45869955    99.35108149
 H      7   6   5     1.099095972984   115.18776369   221.95535455

---------------------------
INTERNAL COORDINATES (A.U.)
---------------------------
 O      0   0   0     0.000000000000     0.00000000     0.00000000
 O      1   0   0     3.173767466786     0.00000000     0.00000000
 C      2   1   0     2.639228948381   104.54588812     0.00000000
 C      3   2   1     2.843008294860    98.13692624   178.43628822
 C      4   3   2     2.630952141156   107.50228592    90.32203385
 C      5   4   3     2.622114038937   110.01359671     9.40547045
 C      6   5   4     2.820274588638   110.63700570     6.97506062
 H      1   2   3     1.830569611273    93.31678909   166.69148693
 H      3   2   1     2.083727947695   111.40427714    55.89057996
 H      4   3   2     2.059075991310   123.95032231   281.23698430
 H      5   4   3     2.063243988433   125.07550629   189.82729569
 H      6   5   4     2.063365938844   124.78538899   180.95021449
 H      7   6   5     2.090405276435   110.45869955    99.35108149
 H      7   6   5     2.076990383836   115.18776369   221.95535455

---------------------
BASIS SET INFORMATION
---------------------
There are 3 groups of distinct atoms

 Group   1 Type O   : 7s4p1d contracted to 3s2p1d pattern {511/31/1}
 Group   2 Type C   : 7s4p1d contracted to 3s2p1d pattern {511/31/1}
 Group   3 Type H   : 4s1p contracted to 2s1p pattern {31/1}

Atom   0O    basis set group =>   1
Atom   1O    basis set group =>   1
Atom   2C    basis set group =>   2
Atom   3C    basis set group =>   2
Atom   4C    basis set group =>   2
Atom   5C    basis set group =>   2
Atom   6C    basis set group =>   2
Atom   7H    basis set group =>   3
Atom   8H    basis set group =>   3
Atom   9H    basis set group =>   3
Atom  10H    basis set group =>   3
Atom  11H    basis set group =>   3
Atom  12H    basis set group =>   3
Atom  13H    basis set group =>   3
---------------------------------
AUXILIARY/J BASIS SET INFORMATION
---------------------------------
There are 3 groups of distinct atoms

 Group   1 Type O   : 12s5p4d2f1g contracted to 6s4p3d1f1g pattern {711111/2111/211/2/1}
 Group   2 Type C   : 12s5p4d2f1g contracted to 6s4p3d1f1g pattern {711111/2111/211/2/1}
 Group   3 Type H   : 5s2p1d contracted to 3s1p1d pattern {311/2/1}

Atom   0O    basis set group =>   1
Atom   1O    basis set group =>   1
Atom   2C    basis set group =>   2
Atom   3C    basis set group =>   2
Atom   4C    basis set group =>   2
Atom   5C    basis set group =>   2
Atom   6C    basis set group =>   2
Atom   7H    basis set group =>   3
Atom   8H    basis set group =>   3
Atom   9H    basis set group =>   3
Atom  10H    basis set group =>   3
Atom  11H    basis set group =>   3
Atom  12H    basis set group =>   3
Atom  13H    basis set group =>   3


           ************************************************************
           *        Program running with 8 parallel MPI-processes     *
           *              working on a common directory               *
           ************************************************************
------------------------------------------------------------------------------
                           ORCA GTO INTEGRAL CALCULATION
                           -- RI-GTO INTEGRALS CHOSEN --
------------------------------------------------------------------------------
------------------------------------------------------------------------------
                   ___                                                        
                  /   \      - P O W E R E D   B Y -                         
                 /     \                                                     
                 |  |  |   _    _      __       _____    __    __             
                 |  |  |  | |  | |    /  \     |  _  \  |  |  /  |          
                  \  \/   | |  | |   /    \    | | | |  |  | /  /          
                 / \  \   | |__| |  /  /\  \   | |_| |  |  |/  /          
                |  |  |   |  __  | /  /__\  \  |    /   |      \           
                |  |  |   | |  | | |   __   |  |    \   |  |\   \          
                \     /   | |  | | |  |  |  |  | |\  \  |  | \   \       
                 \___/    |_|  |_| |__|  |__|  |_| \__\ |__|  \__/        
                                                                              
                      - O R C A' S   B I G   F R I E N D -                    
                                      &                                       
                       - I N T E G R A L  F E E D E R -                       
                                                                              
 v1 FN, 2020, v2 2021                                                         
------------------------------------------------------------------------------


Reading SHARK input file path_opt2_orca.SHARKINP.tmp ... ok
----------------------
SHARK INTEGRAL PACKAGE
----------------------

Number of atoms                             ...     14
Number of basis functions                   ...    133
Number of shells                            ...     63
Maximum angular momentum                    ...      2
Integral batch strategy                     ... SHARK/LIBINT Hybrid
RI-J (if used) integral strategy            ... SPLIT-RIJ (Revised 2003 algorithm where possible)
Printlevel                                  ...      1
Contraction scheme used                     ... SEGMENTED contraction
Coulomb Range Separation                    ... NOT USED
Exchange Range Separation                   ... NOT USED
Finite Nucleus Model                        ... NOT USED
Auxiliary Coulomb fitting basis             ... AVAILABLE
   # of basis functions in Aux-J            ...    420
   # of shells in Aux-J                     ...    140
   Maximum angular momentum in Aux-J        ...      4
Auxiliary J/K fitting basis                 ... NOT available
Auxiliary Correlation fitting basis         ... NOT available
Auxiliary 'external' fitting basis          ... NOT available
Integral threshold                          ...     2.500000e-11
Primitive cut-off                           ...     2.500000e-12
Primitive pair pre-selection threshold      ...     2.500000e-12

Calculating pre-screening integrals         ... done (  0.0 sec) Dimension = 63
Organizing shell pair data                  ... done (  0.0 sec)
Shell pair information
Total number of shell pairs                 ...      2016
Shell pairs after pre-screening             ...      1959
Total number of primitive shell pairs       ...      7252
Primitive shell pairs kept                  ...      5402
          la=0 lb=0:    607 shell pairs
          la=1 lb=0:    717 shell pairs
          la=1 lb=1:    225 shell pairs
          la=2 lb=0:    238 shell pairs
          la=2 lb=1:    144 shell pairs
          la=2 lb=2:     28 shell pairs

Calculating one electron integrals          ... done (  0.0 sec)
Calculating RI/J V-Matrix + Cholesky decomp.... done (  0.0 sec)
Calculating Nuclear repulsion               ... done (  0.0 sec) ENN=    304.500020670927 Eh

SHARK setup successfully completed in   0.1 seconds

Maximum memory used throughout the entire GTOINT-calculation: 10.7 MB


           ************************************************************
           *        Program running with 8 parallel MPI-processes     *
           *              working on a common directory               *
           ************************************************************
-------------------------------------------------------------------------------
                                 ORCA SCF
-------------------------------------------------------------------------------

------------
SCF SETTINGS
------------
Hamiltonian:
 Density Functional     Method          .... DFT(GTOs)
 Exchange Functional    Exchange        .... PBE
   PBE kappa parameter   XKappa         ....  0.804000
   PBE mue parameter    XMuePBE         ....  0.219520
 Correlation Functional Correlation     .... PBE
   PBE beta parameter  CBetaPBE         ....  0.066725
 LDA part of GGA corr.  LDAOpt          .... PW91-LDA
 Gradients option       PostSCFGGA      .... off
 Hybrid DFT is turned on
   Fraction HF Exchange ScalHFX         ....  0.250000
   Scaling of DF-GGA-X  ScalDFX         ....  0.750000
   Scaling of DF-GGA-C  ScalDFC         ....  1.000000
   Scaling of DF-LDA-C  ScalLDAC        ....  1.000000
   Perturbative correction              ....  0.000000
   Density functional embedding theory  .... OFF
   NL short-range parameter             ....  6.900000
 RI-approximation to the Coulomb term is turned on
   Number of AuxJ basis functions       .... 420
   RIJ-COSX (HFX calculated with COS-X)).... on


General Settings:
 Integral files         IntName         .... path_opt2_orca
 Hartree-Fock type      HFTyp           .... UHF
 Total Charge           Charge          ....    0
 Multiplicity           Mult            ....    2
 Number of Electrons    NEL             ....   53
 Basis Dimension        Dim             ....  133
 Nuclear Repulsion      ENuc            ....    304.5000206709 Eh

Convergence Acceleration:
 DIIS                   CNVDIIS         .... on
   Start iteration      DIISMaxIt       ....    12
   Startup error        DIISStart       ....  0.200000
   # of expansion vecs  DIISMaxEq       ....     5
   Bias factor          DIISBfac        ....   1.050
   Max. coefficient     DIISMaxC        ....  10.000
 Trust-Rad. Augm. Hess. CNVTRAH         .... auto
   Auto Start mean grad. ratio tolernc. ....  1.125000
   Auto Start start iteration           ....    20
   Auto Start num. interpolation iter.  ....    10
   Max. Number of Micro iterations      ....    16
   Max. Number of Macro iterations      .... Maxiter - #DIIS iter
   Number of Davidson start vectors     ....     2
   Converg. threshold I  (grad. norm)   ....   1.000e-05
   Converg. threshold II (energy diff.) ....   1.000e-08
   Grad. Scal. Fac. for Micro threshold ....   0.100
   Minimum threshold for Micro iter.    ....   0.010
   NR start threshold (gradient norm)   ....   0.001
   Initial trust radius                 ....   0.400
   Minimum AH scaling param. (alpha)    ....   1.000
   Maximum AH scaling param. (alpha)    .... 1000.000
   Orbital update algorithm             .... Taylor
   White noise on init. David. guess    .... on
   Maximum white noise                  ....   0.010
   Quad. conv. algorithm                .... NR
 SOSCF                  CNVSOSCF        .... off
 Level Shifting         CNVShift        .... on
   Level shift para.    LevelShift      ....    0.2500
   Turn off err/grad.   ShiftErr        ....    0.0010
 Zerner damping         CNVZerner       .... off
 Static damping         CNVDamp         .... on
   Fraction old density DampFac         ....    0.7000
   Max. Damping (<1)    DampMax         ....    0.9800
   Min. Damping (>=0)   DampMin         ....    0.0000
   Turn off err/grad.   DampErr         ....    0.1000
 Fernandez-Rico         CNVRico         .... off

SCF Procedure:
 Maximum # iterations   MaxIter         ....   250
 SCF integral mode      SCFMode         .... Direct
   Integral package                     .... SHARK and LIBINT hybrid scheme
 Reset frequency        DirectResetFreq ....    20
 Integral Threshold     Thresh          ....  2.500e-11 Eh
 Primitive CutOff       TCut            ....  2.500e-12 Eh

Convergence Tolerance:
 Convergence Check Mode ConvCheckMode   .... Total+1el-Energy
 Convergence forced     ConvForced      .... 0
 Energy Change          TolE            ....  1.000e-08 Eh
 1-El. energy change                    ....  1.000e-05 Eh
 DIIS Error             TolErr          ....  5.000e-07


Diagonalization of the overlap matrix:
Smallest eigenvalue                        ... 8.206e-04
Time for diagonalization                   ...    0.003 sec
Threshold for overlap eigenvalues          ... 1.000e-08
Number of eigenvalues below threshold      ... 0
Time for construction of square roots      ...    0.001 sec
Total time needed                          ...    0.005 sec

Time for model grid setup =    0.043 sec

------------------------------
INITIAL GUESS: MODEL POTENTIAL
------------------------------
Loading Hartree-Fock densities                     ... done
Calculating cut-offs                               ... done
Initializing the effective Hamiltonian             ... done
Setting up the integral package (SHARK)            ... done
Starting the Coulomb interaction                   ... done (   0.0 sec)
Reading the grid                                   ... done
Mapping shells                                     ... done
Starting the XC term evaluation                    ... done (   0.0 sec)
  promolecular density results
     # of electrons  =     52.996716874
     EX              =    -43.891800985
     EC              =     -1.760164132
     EX+EC           =    -45.651965117
Transforming the Hamiltonian                       ... done (   0.0 sec)
Diagonalizing the Hamiltonian                      ... done (   0.0 sec)
Back transforming the eigenvectors                 ... done (   0.0 sec)
Now organizing SCF variables                       ... done
                      ------------------
                      INITIAL GUESS DONE (   0.1 sec)
                      ------------------
-------------------
DFT GRID GENERATION
-------------------

General Integration Accuracy     IntAcc      ... 4.388
Radial Grid Type                 RadialGrid  ... OptM3 with GC (2021)
Angular Grid (max. ang.)         AngularGrid ... 4 (Lebedev-302)
Angular grid pruning method      GridPruning ... 4 (adaptive)
Weight generation scheme         WeightScheme... Becke
Basis function cutoff            BFCut       ... 1.0000e-11
Integration weight cutoff        WCut        ... 1.0000e-14
Angular grids for H and He will be reduced by one unit
Partially contracted basis set               ... off
Rotationally invariant grid construction     ... off

Total number of grid points                  ...    64793
Total number of batches                      ...     1021
Average number of points per batch           ...       63
Average number of grid points per atom       ...     4628
Time for grid setup =    0.245 sec

--------------------
COSX GRID GENERATION
--------------------

GRIDX 1
-------
General Integration Accuracy     IntAcc      ... 3.816
Radial Grid Type                 RadialGrid  ... OptM3 with GC (2021)
Angular Grid (max. ang.)         AngularGrid ... 1 (Lebedev-50)
Angular grid pruning method      GridPruning ... 4 (adaptive)
Weight generation scheme         WeightScheme... Becke
Basis function cutoff            BFCut       ... 1.0000e-11
Integration weight cutoff        WCut        ... 1.0000e-14
Angular grids for H and He will be reduced by one unit
Partially contracted basis set               ... on
Rotationally invariant grid construction     ... off

Total number of grid points                  ...     8280
Total number of batches                      ...      136
Average number of points per batch           ...       60
Average number of grid points per atom       ...      591
UseSFitting                                  ... on

GRIDX 2
-------
General Integration Accuracy     IntAcc      ... 4.020
Radial Grid Type                 RadialGrid  ... OptM3 with GC (2021)
Angular Grid (max. ang.)         AngularGrid ... 2 (Lebedev-110)
Angular grid pruning method      GridPruning ... 4 (adaptive)
Weight generation scheme         WeightScheme... Becke
Basis function cutoff            BFCut       ... 1.0000e-11
Integration weight cutoff        WCut        ... 1.0000e-14
Angular grids for H and He will be reduced by one unit
Partially contracted basis set               ... on
Rotationally invariant grid construction     ... off

Total number of grid points                  ...    18030
Total number of batches                      ...      290
Average number of points per batch           ...       62
Average number of grid points per atom       ...     1288
UseSFitting                                  ... on

GRIDX 3
-------
General Integration Accuracy     IntAcc      ... 4.338
Radial Grid Type                 RadialGrid  ... OptM3 with GC (2021)
Angular Grid (max. ang.)         AngularGrid ... 3 (Lebedev-194)
Angular grid pruning method      GridPruning ... 4 (adaptive)
Weight generation scheme         WeightScheme... Becke
Basis function cutoff            BFCut       ... 1.0000e-11
Integration weight cutoff        WCut        ... 1.0000e-14
Angular grids for H and He will be reduced by one unit
Partially contracted basis set               ... on
Rotationally invariant grid construction     ... off

Total number of grid points                  ...    39587
Total number of batches                      ...      624
Average number of points per batch           ...       63
Average number of grid points per atom       ...     2828
UseSFitting                                  ... on

Time for X-Grid setup             =    0.179 sec

--------------
SCF ITERATIONS
--------------
ITER       Energy         Delta-E        Max-DP      RMS-DP      [F,P]     Damp
               ***  Starting incremental Fock matrix formation  ***
  0   -344.2012679150   0.000000000000 0.03276762  0.00120052  0.1019023 0.7000
  1   -344.2622079429  -0.060940027891 0.02095052  0.00084180  0.0422686 0.7000
                               ***Turning on DIIS***
  2   -344.2886207967  -0.026412853837 0.03518007  0.00150282  0.0172035 0.0000
  3   -344.3307472130  -0.042126416247 0.01425643  0.00065200  0.0255180 0.0000
  4   -344.3402879388  -0.009540725841 0.00743456  0.00023076  0.0051510 0.0000
  5   -344.3410746722  -0.000786733416 0.00414647  0.00014289  0.0054822 0.0000
  6   -344.3416130095  -0.000538337308 0.00419552  0.00013830  0.0026219 0.0000
  7   -344.3419534269  -0.000340417322 0.00282781  0.00008196  0.0016986 0.0000
  8   -344.3421185404  -0.000165113539 0.00230878  0.00008303  0.0012216 0.0000
  9   -344.3422392849  -0.000120744521 0.00342837  0.00011918  0.0007995 0.0000
               *** Restarting incremental Fock matrix formation ***
                                   *** Resetting DIIS ***
 10   -344.3423741071  -0.000134822220 0.00161114  0.00004541  0.0006754 0.0000
 11   -344.3423833713  -0.000009264132 0.00085033  0.00002576  0.0009633 0.0000
 12   -344.3423953886  -0.000012017344 0.00090652  0.00001506  0.0007232 0.0000
 13   -344.3424012074  -0.000005818781 0.00138955  0.00002843  0.0007112 0.0000
 14   -344.3424119690  -0.000010761624 0.00176353  0.00003632  0.0003928 0.0000
 15   -344.3424208613  -0.000008892261 0.00117411  0.00002326  0.0002297 0.0000
 16   -344.3424239382  -0.000003076875 0.00049989  0.00001091  0.0001106 0.0000
 17   -344.3424248029  -0.000000864731 0.00056610  0.00001040  0.0000704 0.0000
 18   -344.3424251869  -0.000000383980 0.00022295  0.00000430  0.0000408 0.0000
 19   -344.3424252631  -0.000000076205 0.00008599  0.00000137  0.0000387 0.0000
 20   -344.3424252756  -0.000000012543 0.00005332  0.00000090  0.0000174 0.0000
 21   -344.3424252812  -0.000000005580 0.00002418  0.00000055  0.0000099 0.0000
 22   -344.3424252845  -0.000000003272 0.00003363  0.00000065  0.0000067 0.0000
 23   -344.3424252866  -0.000000002142 0.00001767  0.00000043  0.0000047 0.0000
 24   -344.3424252851   0.000000001459 0.00001618  0.00000043  0.0000035 0.0000
                 **** Energy Check signals convergence ****

               *****************************************************
               *                     SUCCESS                       *
               *           SCF CONVERGED AFTER  25 CYCLES          *
               *****************************************************

Old exchange energy                            =    -11.175385489 Eh
New exchange energy                            =    -11.175412997 Eh
Exchange energy change after final integration =     -0.000027508 Eh
Total energy after final integration           =   -344.342452797 Eh
Final COS-X integration done in                =     0.684 sec

----------------
TOTAL SCF ENERGY
----------------

Total Energy       :         -344.34245280 Eh           -9370.03450 eV

Components:
Nuclear Repulsion  :          304.50002067 Eh            8285.86681 eV
Electronic Energy  :         -648.84247347 Eh          -17655.90131 eV
One Electron Energy:        -1072.25159017 Eh          -29177.44912 eV
Two Electron Energy:          423.40911670 Eh           11521.54781 eV
Max COSX asymmetry :            0.00000104 Eh               0.00003 eV

Virial components:
Potential Energy   :         -686.03713167 Eh          -18668.01942 eV
Kinetic Energy     :          341.69467888 Eh            9297.98491 eV
Virial Ratio       :            2.00774895


DFT components:
N(Alpha)           :       27.000023802319 electrons
N(Beta)            :       26.000018250779 electrons
N(Total)           :       53.000042053099 electrons
E(X)               :      -33.481744975067 Eh       
E(C)               :       -1.771579014902 Eh       
E(XC)              :      -35.253323989969 Eh       
DFET-embed. en.    :        0.000000000000 Eh       

---------------
SCF CONVERGENCE
---------------

  Last Energy change         ...   -4.3905e-09  Tolerance :   1.0000e-08
  Last MAX-Density change    ...    0.0000e+00  Tolerance :   1.0000e-07
  Last RMS-Density change    ...    0.0000e+00  Tolerance :   5.0000e-09
  Last DIIS Error            ...    2.8069e-06  Tolerance :   5.0000e-07

             **** THE GBW FILE WAS UPDATED (path_opt2_orca.gbw) ****
             **** DENSITY path_opt2_orca.scfp WAS UPDATED ****
             **** ENERGY FILE WAS UPDATED (path_opt2_orca.en.tmp) ****
----------------------
UHF SPIN CONTAMINATION
----------------------

Warning: in a DFT calculation there is little theoretical justification to 
         calculate <S**2> as in Hartree-Fock theory. We will do it anyways
         but you should keep in mind that the values have only limited relevance

Expectation value of <S**2>     :     0.808932
Ideal value S*(S+1) for S=0.5   :     0.750000
Deviation                       :     0.058932

             **** THE GBW FILE WAS UPDATED (path_opt2_orca.gbw) ****
             **** DENSITY path_opt2_orca.scfp WAS UPDATED ****
----------------
ORBITAL ENERGIES
----------------
                 SPIN UP ORBITALS
  NO   OCC          E(Eh)            E(eV) 
   0   1.0000     -19.257134      -524.0132 
   1   1.0000     -19.238710      -523.5119 
   2   1.0000     -10.280132      -279.7366 
   3   1.0000     -10.255557      -279.0679 
   4   1.0000     -10.250346      -278.9261 
   5   1.0000     -10.242959      -278.7251 
   6   1.0000     -10.225240      -278.2429 
   7   1.0000      -1.075310       -29.2607 
   8   1.0000      -0.963261       -26.2117 
   9   1.0000      -0.871227       -23.7073 
  10   1.0000      -0.749334       -20.3904 
  11   1.0000      -0.704137       -19.1605 
  12   1.0000      -0.581851       -15.8330 
  13   1.0000      -0.564515       -15.3612 
  14   1.0000      -0.551249       -15.0003 
  15   1.0000      -0.496961       -13.5230 
  16   1.0000      -0.476519       -12.9667 
  17   1.0000      -0.442915       -12.0523 
  18   1.0000      -0.411854       -11.2071 
  19   1.0000      -0.410096       -11.1593 
  20   1.0000      -0.396284       -10.7834 
  21   1.0000      -0.386683       -10.5222 
  22   1.0000      -0.354123        -9.6362 
  23   1.0000      -0.332937        -9.0597 
  24   1.0000      -0.315972        -8.5980 
  25   1.0000      -0.268370        -7.3027 
  26   1.0000      -0.206535        -5.6201 
  27   0.0000      -0.070754        -1.9253 
  28   0.0000       0.037897         1.0312 
  29   0.0000       0.079148         2.1537 
  30   0.0000       0.096894         2.6366 
  31   0.0000       0.115970         3.1557 
  32   0.0000       0.124685         3.3929 
  33   0.0000       0.136124         3.7041 
  34   0.0000       0.146024         3.9735 
  35   0.0000       0.164167         4.4672 
  36   0.0000       0.207246         5.6394 
  37   0.0000       0.220269         5.9938 
  38   0.0000       0.256338         6.9753 
  39   0.0000       0.279182         7.5969 
  40   0.0000       0.342757         9.3269 
  41   0.0000       0.376234        10.2378 
  42   0.0000       0.406393        11.0585 
  43   0.0000       0.442547        12.0423 
  44   0.0000       0.464146        12.6301 
  45   0.0000       0.487428        13.2636 
  46   0.0000       0.501710        13.6522 
  47   0.0000       0.536313        14.5938 
  48   0.0000       0.553075        15.0499 
  49   0.0000       0.581818        15.8321 
  50   0.0000       0.586372        15.9560 
  51   0.0000       0.615864        16.7585 
  52   0.0000       0.627757        17.0821 
  53   0.0000       0.636279        17.3140 
  54   0.0000       0.645980        17.5780 
  55   0.0000       0.656869        17.8743 
  56   0.0000       0.680557        18.5189 
  57   0.0000       0.699534        19.0353 
  58   0.0000       0.701655        19.0930 
  59   0.0000       0.716327        19.4922 
  60   0.0000       0.732701        19.9378 
  61   0.0000       0.751097        20.4384 
  62   0.0000       0.804131        21.8815 
  63   0.0000       0.810985        22.0680 
  64   0.0000       0.829307        22.5666 
  65   0.0000       0.884431        24.0666 
  66   0.0000       0.926218        25.2037 
  67   0.0000       0.967694        26.3323 
  68   0.0000       1.012031        27.5388 
  69   0.0000       1.026922        27.9440 
  70   0.0000       1.068525        29.0760 
  71   0.0000       1.133272        30.8379 
  72   0.0000       1.159212        31.5438 
  73   0.0000       1.189221        32.3603 
  74   0.0000       1.193459        32.4757 
  75   0.0000       1.273335        34.6492 
  76   0.0000       1.280778        34.8517 
  77   0.0000       1.321730        35.9661 
  78   0.0000       1.379544        37.5393 
  79   0.0000       1.449407        39.4404 
  80   0.0000       1.504136        40.9296 
  81   0.0000       1.552327        42.2410 
  82   0.0000       1.564766        42.5795 
  83   0.0000       1.602451        43.6049 
  84   0.0000       1.641552        44.6689 
  85   0.0000       1.663244        45.2592 
  86   0.0000       1.668719        45.4082 
  87   0.0000       1.700741        46.2795 
  88   0.0000       1.725619        46.9565 
  89   0.0000       1.765742        48.0483 
  90   0.0000       1.794621        48.8341 
  91   0.0000       1.833105        49.8813 
  92   0.0000       1.840341        50.0782 
  93   0.0000       1.858521        50.5729 
  94   0.0000       1.870392        50.8960 
  95   0.0000       1.897440        51.6320 
  96   0.0000       1.921544        52.2879 
  97   0.0000       1.945082        52.9284 
  98   0.0000       1.965991        53.4973 
  99   0.0000       2.037333        55.4386 
 100   0.0000       2.066949        56.2446 
 101   0.0000       2.101546        57.1860 
 102   0.0000       2.111548        57.4581 
 103   0.0000       2.122045        57.7438 
 104   0.0000       2.218117        60.3580 
 105   0.0000       2.251455        61.2652 
 106   0.0000       2.282784        62.1177 
 107   0.0000       2.308888        62.8280 
 108   0.0000       2.376342        64.6635 
 109   0.0000       2.441655        66.4408 
 110   0.0000       2.486679        67.6660 
 111   0.0000       2.498074        67.9760 
 112   0.0000       2.522028        68.6279 
 113   0.0000       2.558318        69.6154 
 114   0.0000       2.596553        70.6558 
 115   0.0000       2.664561        72.5064 
 116   0.0000       2.709140        73.7194 
 117   0.0000       2.732012        74.3418 
 118   0.0000       2.741241        74.5930 
 119   0.0000       2.782235        75.7085 
 120   0.0000       2.836904        77.1961 
 121   0.0000       2.867164        78.0195 
 122   0.0000       2.936171        79.8973 
 123   0.0000       2.955288        80.4175 
 124   0.0000       2.995362        81.5079 
 125   0.0000       3.067700        83.4763 
 126   0.0000       3.089348        84.0654 
 127   0.0000       3.124837        85.0311 
 128   0.0000       3.209465        87.3340 
 129   0.0000       3.278061        89.2006 
 130   0.0000       3.453267        93.9682 
 131   0.0000       3.492791        95.0437 
 132   0.0000       3.739521       101.7575 

                 SPIN DOWN ORBITALS
  NO   OCC          E(Eh)            E(eV) 
   0   1.0000     -19.258723      -524.0565 
   1   1.0000     -19.232496      -523.3428 
   2   1.0000     -10.280535      -279.7476 
   3   1.0000     -10.247518      -278.8491 
   4   1.0000     -10.246510      -278.8217 
   5   1.0000     -10.240462      -278.6571 
   6   1.0000     -10.225870      -278.2601 
   7   1.0000      -1.074629       -29.2422 
   8   1.0000      -0.950186       -25.8559 
   9   1.0000      -0.862855       -23.4795 
  10   1.0000      -0.743035       -20.2190 
  11   1.0000      -0.692138       -18.8340 
  12   1.0000      -0.575932       -15.6719 
  13   1.0000      -0.561385       -15.2761 
  14   1.0000      -0.544103       -14.8058 
  15   1.0000      -0.490131       -13.3371 
  16   1.0000      -0.473354       -12.8806 
  17   1.0000      -0.438322       -11.9274 
  18   1.0000      -0.407114       -11.0781 
  19   1.0000      -0.404839       -11.0162 
  20   1.0000      -0.392856       -10.6901 
  21   1.0000      -0.381141       -10.3714 
  22   1.0000      -0.342727        -9.3261 
  23   1.0000      -0.318065        -8.6550 
  24   1.0000      -0.302001        -8.2179 
  25   1.0000      -0.265695        -7.2299 
  26   0.0000      -0.087992        -2.3944 
  27   0.0000      -0.042746        -1.1632 
  28   0.0000       0.061709         1.6792 
  29   0.0000       0.081618         2.2209 
  30   0.0000       0.099656         2.7118 
  31   0.0000       0.118420         3.2224 
  32   0.0000       0.127825         3.4783 
  33   0.0000       0.139954         3.8083 
  34   0.0000       0.149619         4.0713 
  35   0.0000       0.167229         4.5505 
  36   0.0000       0.211668         5.7598 
  37   0.0000       0.223358         6.0779 
  38   0.0000       0.260226         7.0811 
  39   0.0000       0.286665         7.8006 
  40   0.0000       0.347440         9.4543 
  41   0.0000       0.380873        10.3641 
  42   0.0000       0.409651        11.1472 
  43   0.0000       0.457133        12.4392 
  44   0.0000       0.469371        12.7722 
  45   0.0000       0.497810        13.5461 
  46   0.0000       0.513275        13.9669 
  47   0.0000       0.551799        15.0152 
  48   0.0000       0.562204        15.2983 
  49   0.0000       0.588735        16.0203 
  50   0.0000       0.601277        16.3616 
  51   0.0000       0.619947        16.8696 
  52   0.0000       0.638499        17.3744 
  53   0.0000       0.643819        17.5192 
  54   0.0000       0.652022        17.7424 
  55   0.0000       0.664082        18.0706 
  56   0.0000       0.685980        18.6665 
  57   0.0000       0.701389        19.0858 
  58   0.0000       0.705648        19.2017 
  59   0.0000       0.718101        19.5405 
  60   0.0000       0.736428        20.0392 
  61   0.0000       0.754617        20.5342 
  62   0.0000       0.809413        22.0253 
  63   0.0000       0.815881        22.2012 
  64   0.0000       0.834004        22.6944 
  65   0.0000       0.886932        24.1346 
  66   0.0000       0.931633        25.3510 
  67   0.0000       0.976172        26.5630 
  68   0.0000       1.019313        27.7369 
  69   0.0000       1.032949        28.1080 
  70   0.0000       1.073185        29.2029 
  71   0.0000       1.137591        30.9554 
  72   0.0000       1.164927        31.6993 
  73   0.0000       1.193122        32.4665 
  74   0.0000       1.198253        32.6061 
  75   0.0000       1.276541        34.7365 
  76   0.0000       1.292695        35.1760 
  77   0.0000       1.327411        36.1207 
  78   0.0000       1.383973        37.6598 
  79   0.0000       1.450340        39.4657 
  80   0.0000       1.506229        40.9866 
  81   0.0000       1.559293        42.4305 
  82   0.0000       1.573959        42.8296 
  83   0.0000       1.604682        43.6656 
  84   0.0000       1.644591        44.7516 
  85   0.0000       1.666604        45.3506 
  86   0.0000       1.672018        45.4979 
  87   0.0000       1.705503        46.4091 
  88   0.0000       1.726993        46.9939 
  89   0.0000       1.768534        48.1243 
  90   0.0000       1.799245        48.9600 
  91   0.0000       1.834773        49.9267 
  92   0.0000       1.854433        50.4617 
  93   0.0000       1.863922        50.7199 
  94   0.0000       1.877755        51.0963 
  95   0.0000       1.908535        51.9339 
  96   0.0000       1.930158        52.5223 
  97   0.0000       1.956965        53.2517 
  98   0.0000       1.972005        53.6610 
  99   0.0000       2.046471        55.6873 
 100   0.0000       2.076443        56.5029 
 101   0.0000       2.100135        57.1476 
 102   0.0000       2.114331        57.5339 
 103   0.0000       2.128390        57.9164 
 104   0.0000       2.222979        60.4903 
 105   0.0000       2.255965        61.3879 
 106   0.0000       2.299848        62.5821 
 107   0.0000       2.314498        62.9807 
 108   0.0000       2.391731        65.0823 
 109   0.0000       2.450765        66.6887 
 110   0.0000       2.492310        67.8192 
 111   0.0000       2.507135        68.2226 
 112   0.0000       2.530805        68.8667 
 113   0.0000       2.561953        69.7143 
 114   0.0000       2.601404        70.7878 
 115   0.0000       2.670591        72.6705 
 116   0.0000       2.713909        73.8492 
 117   0.0000       2.736351        74.4599 
 118   0.0000       2.745423        74.7068 
 119   0.0000       2.784420        75.7679 
 120   0.0000       2.839815        77.2753 
 121   0.0000       2.870824        78.1191 
 122   0.0000       2.946737        80.1848 
 123   0.0000       2.959727        80.5383 
 124   0.0000       2.997276        81.5600 
 125   0.0000       3.072017        83.5938 
 126   0.0000       3.092459        84.1501 
 127   0.0000       3.126976        85.0893 
 128   0.0000       3.211974        87.4022 
 129   0.0000       3.281824        89.3030 
 130   0.0000       3.456129        94.0460 
 131   0.0000       3.490629        94.9848 
 132   0.0000       3.744808       101.9014 

                    ********************************
                    * MULLIKEN POPULATION ANALYSIS *
                    ********************************

--------------------------------------------
MULLIKEN ATOMIC CHARGES AND SPIN POPULATIONS
--------------------------------------------
   0 O :   -0.234779    0.218475
   1 O :   -0.245501   -0.087766
   2 C :    0.035956   -0.036705
   3 C :   -0.019049    0.585057
   4 C :    0.006765   -0.284754
   5 C :   -0.079110    0.669714
   6 C :    0.091873   -0.059576
   7 H :    0.186871   -0.004955
   8 H :    0.033393    0.005819
   9 H :    0.048778   -0.028425
  10 H :    0.030339    0.009878
  11 H :    0.027580   -0.032869
  12 H :    0.049630    0.036728
  13 H :    0.067254    0.009380
Sum of atomic charges         :    0.0000000
Sum of atomic spin populations:    1.0000000

-----------------------------------------------------
MULLIKEN REDUCED ORBITAL CHARGES AND SPIN POPULATIONS
-----------------------------------------------------
CHARGE
  0 O s       :     3.837170  s :     3.837170
      pz      :     1.428971  p :     4.388591
      px      :     1.393649
      py      :     1.565970
      dz2     :     0.003485  d :     0.009018
      dxz     :     0.001043
      dyz     :     0.002130
      dx2y2   :     0.000912
      dxy     :     0.001449
  1 O s       :     3.879398  s :     3.879398
      pz      :     1.443296  p :     4.350080
      px      :     1.338176
      py      :     1.568608
      dz2     :     0.005883  d :     0.016023
      dxz     :     0.002921
      dyz     :     0.003385
      dx2y2   :     0.001127
      dxy     :     0.002707
  2 C s       :     3.118480  s :     3.118480
      pz      :     0.792896  p :     2.761054
      px      :     0.992805
      py      :     0.975353
      dz2     :     0.020652  d :     0.084510
      dxz     :     0.018637
      dyz     :     0.023110
      dx2y2   :     0.008483
      dxy     :     0.013629
  3 C s       :     3.220047  s :     3.220047
      pz      :     0.992377  p :     2.764743
      px      :     0.923889
      py      :     0.848478
      dz2     :     0.002563  d :     0.034259
      dxz     :     0.004989
      dyz     :     0.005554
      dx2y2   :     0.010086
      dxy     :     0.011067
  4 C s       :     3.170664  s :     3.170664
      pz      :     0.962371  p :     2.783438
      px      :     0.863054
      py      :     0.958013
      dz2     :     0.003780  d :     0.039133
      dxz     :     0.005776
      dyz     :     0.006966
      dx2y2   :     0.011421
      dxy     :     0.011190
  5 C s       :     3.227687  s :     3.227687
      pz      :     0.921404  p :     2.813611
      px      :     0.973738
      py      :     0.918470
      dz2     :     0.005636  d :     0.037812
      dxz     :     0.004995
      dyz     :     0.005186
      dx2y2   :     0.009371
      dxy     :     0.012624
  6 C s       :     2.953892  s :     2.953892
      pz      :     0.958906  p :     2.918154
      px      :     0.947957
      py      :     1.011291
      dz2     :     0.009567  d :     0.036081
      dxz     :     0.006117
      dyz     :     0.004513
      dx2y2   :     0.007878
      dxy     :     0.008006
  7 H s       :     0.746394  s :     0.746394
      pz      :     0.033261  p :     0.066735
      px      :     0.013730
      py      :     0.019743
  8 H s       :     0.945849  s :     0.945849
      pz      :     0.004957  p :     0.020758
      px      :     0.009723
      py      :     0.006078
  9 H s       :     0.927085  s :     0.927085
      pz      :     0.006653  p :     0.024137
      px      :     0.003144
      py      :     0.014339
 10 H s       :     0.946111  s :     0.946111
      pz      :     0.005812  p :     0.023550
      px      :     0.013846
      py      :     0.003892
 11 H s       :     0.948909  s :     0.948909
      pz      :     0.004582  p :     0.023512
      px      :     0.007782
      py      :     0.011148
 12 H s       :     0.927139  s :     0.927139
      pz      :     0.014447  p :     0.023231
      px      :     0.004445
      py      :     0.004339
 13 H s       :     0.908235  s :     0.908235
      pz      :     0.005352  p :     0.024510
      px      :     0.008819
      py      :     0.010339

SPIN
  0 O s       :     0.001037  s :     0.001037
      pz      :     0.011098  p :     0.217436
      px      :     0.102383
      py      :     0.103955
      dz2     :     0.000037  d :     0.000002
      dxz     :     0.000039
      dyz     :    -0.000022
      dx2y2   :    -0.000002
      dxy     :    -0.000050
  1 O s       :     0.005429  s :     0.005429
      pz      :     0.002924  p :    -0.093902
      px      :    -0.021992
      py      :    -0.074834
      dz2     :     0.000183  d :     0.000707
      dxz     :    -0.000009
      dyz     :     0.000022
      dx2y2   :     0.000023
      dxy     :     0.000487
  2 C s       :    -0.012245  s :    -0.012245
      pz      :    -0.004578  p :    -0.027555
      px      :    -0.015076
      py      :    -0.007900
      dz2     :    -0.000718  d :     0.003095
      dxz     :     0.002766
      dyz     :     0.001216
      dx2y2   :     0.000038
      dxy     :    -0.000207
  3 C s       :     0.083876  s :     0.083876
      pz      :     0.416241  p :     0.503908
      px      :     0.027661
      py      :     0.060007
      dz2     :    -0.000893  d :    -0.002727
      dxz     :    -0.000557
      dyz     :    -0.000936
      dx2y2   :    -0.000171
      dxy     :    -0.000171
  4 C s       :    -0.052101  s :    -0.052101
      pz      :    -0.155888  p :    -0.240560
      px      :    -0.032269
      py      :    -0.052403
      dz2     :     0.001224  d :     0.007907
      dxz     :     0.001125
      dyz     :     0.004483
      dx2y2   :     0.000587
      dxy     :     0.000489
  5 C s       :     0.088370  s :     0.088370
      pz      :     0.435547  p :     0.583503
      px      :     0.080808
      py      :     0.067148
      dz2     :    -0.000717  d :    -0.002159
      dxz     :    -0.000422
      dyz     :    -0.000810
      dx2y2   :    -0.000138
      dxy     :    -0.000072
  6 C s       :    -0.018256  s :    -0.018256
      pz      :    -0.014001  p :    -0.045380
      px      :    -0.024239
      py      :    -0.007140
      dz2     :     0.002366  d :     0.004059
      dxz     :     0.001135
      dyz     :     0.000138
      dx2y2   :     0.000193
      dxy     :     0.000227
  7 H s       :    -0.006665  s :    -0.006665
      pz      :     0.000062  p :     0.001710
      px      :     0.000780
      py      :     0.000868
  8 H s       :     0.005850  s :     0.005850
      pz      :    -0.000007  p :    -0.000031
      px      :    -0.000095
      py      :     0.000071
  9 H s       :    -0.031388  s :    -0.031388
      pz      :     0.002417  p :     0.002962
      px      :    -0.000040
      py      :     0.000586
 10 H s       :     0.010842  s :     0.010842
      pz      :    -0.000731  p :    -0.000964
      px      :    -0.000134
      py      :    -0.000099
 11 H s       :    -0.036299  s :    -0.036299
      pz      :     0.002575  p :     0.003430
      px      :     0.000387
      py      :     0.000468
 12 H s       :     0.036991  s :     0.036991
      pz      :    -0.000283  p :    -0.000263
      px      :    -0.000012
      py      :     0.000032
 13 H s       :     0.009473  s :     0.009473
      pz      :    -0.000050  p :    -0.000093
      px      :    -0.000121
      py      :     0.000078


                     *******************************
                     * LOEWDIN POPULATION ANALYSIS *
                     *******************************

-------------------------------------------
LOEWDIN ATOMIC CHARGES AND SPIN POPULATIONS
-------------------------------------------
   0 O :   -0.125589    0.199491
   1 O :   -0.065081   -0.066802
   2 C :    0.014735    0.002473
   3 C :   -0.005292    0.449852
   4 C :   -0.034653   -0.149799
   5 C :    0.019207    0.529773
   6 C :   -0.060974   -0.007386
   7 H :    0.067519    0.001792
   8 H :    0.014990    0.004861
   9 H :    0.034183   -0.001029
  10 H :    0.036551    0.000566
  11 H :    0.022757   -0.001300
  12 H :    0.039279    0.028968
  13 H :    0.042367    0.008541

----------------------------------------------------
LOEWDIN REDUCED ORBITAL CHARGES AND SPIN POPULATIONS
----------------------------------------------------
CHARGE
  0 O s       :     3.641342  s :     3.641342
      pz      :     1.511562  p :     4.468762
      px      :     1.392358
      py      :     1.564842
      dz2     :     0.006666  d :     0.015486
      dxz     :     0.000989
      dyz     :     0.004173
      dx2y2   :     0.001387
      dxy     :     0.002271
  1 O s       :     3.621909  s :     3.621909
      pz      :     1.515991  p :     4.415637
      px      :     1.332405
      py      :     1.567241
      dz2     :     0.010020  d :     0.027535
      dxz     :     0.004934
      dyz     :     0.005732
      dx2y2   :     0.001944
      dxy     :     0.004904
  2 C s       :     2.837886  s :     2.837886
      pz      :     0.910142  p :     2.953438
      px      :     1.023881
      py      :     1.019415
      dz2     :     0.045824  d :     0.193941
      dxz     :     0.041280
      dyz     :     0.055917
      dx2y2   :     0.016737
      dxy     :     0.034183
  3 C s       :     2.895216  s :     2.895216
      pz      :     0.976386  p :     3.024878
      px      :     1.021681
      py      :     1.026811
      dz2     :     0.006156  d :     0.085198
      dxz     :     0.011259
      dyz     :     0.010385
      dx2y2   :     0.025530
      dxy     :     0.031868
  4 C s       :     2.862427  s :     2.862427
      pz      :     0.968848  p :     3.069686
      px      :     1.042942
      py      :     1.057895
      dz2     :     0.008675  d :     0.102540
      dxz     :     0.012284
      dyz     :     0.017517
      dx2y2   :     0.031741
      dxy     :     0.032324
  5 C s       :     2.884837  s :     2.884837
      pz      :     0.937309  p :     3.003338
      px      :     1.021951
      py      :     1.044079
      dz2     :     0.011626  d :     0.092617
      dxz     :     0.011533
      dyz     :     0.011729
      dx2y2   :     0.026371
      dxy     :     0.031359
  6 C s       :     2.833967  s :     2.833967
      pz      :     1.040954  p :     3.130898
      px      :     1.038976
      py      :     1.050969
      dz2     :     0.026702  d :     0.096109
      dxz     :     0.015060
      dyz     :     0.011709
      dx2y2   :     0.021901
      dxy     :     0.020736
  7 H s       :     0.751556  s :     0.751556
      pz      :     0.091718  p :     0.180924
      px      :     0.037263
      py      :     0.051943
  8 H s       :     0.918661  s :     0.918661
      pz      :     0.016717  p :     0.066349
      px      :     0.029509
      py      :     0.020122
  9 H s       :     0.891875  s :     0.891875
      pz      :     0.021161  p :     0.073942
      px      :     0.011736
      py      :     0.041045
 10 H s       :     0.895659  s :     0.895659
      pz      :     0.016954  p :     0.067790
      px      :     0.038325
      py      :     0.012511
 11 H s       :     0.905763  s :     0.905763
      pz      :     0.015292  p :     0.071480
      px      :     0.024618
      py      :     0.031569
 12 H s       :     0.893452  s :     0.893452
      pz      :     0.040685  p :     0.067269
      px      :     0.012975
      py      :     0.013610
 13 H s       :     0.885988  s :     0.885988
      pz      :     0.014775  p :     0.071644
      px      :     0.025078
      py      :     0.031792

SPIN
  0 O s       :     0.000925  s :     0.000925
      pz      :     0.008491  p :     0.198745
      px      :     0.093314
      py      :     0.096941
      dz2     :    -0.000004  d :    -0.000178
      dxz     :     0.000004
      dyz     :    -0.000053
      dx2y2   :    -0.000057
      dxy     :    -0.000067
  1 O s       :     0.013637  s :     0.013637
      pz      :     0.002090  p :    -0.081768
      px      :    -0.015439
      py      :    -0.068419
      dz2     :     0.000156  d :     0.001328
      dxz     :    -0.000038
      dyz     :    -0.000007
      dx2y2   :     0.000070
      dxy     :     0.001146
  2 C s       :    -0.000578  s :    -0.000578
      pz      :     0.002399  p :    -0.004581
      px      :    -0.004188
      py      :    -0.002792
      dz2     :    -0.001372  d :     0.007632
      dxz     :     0.006416
      dyz     :     0.002554
      dx2y2   :     0.000121
      dxy     :    -0.000087
  3 C s       :     0.016294  s :     0.016294
      pz      :     0.377010  p :     0.438698
      px      :     0.015877
      py      :     0.045812
      dz2     :    -0.000861  d :    -0.005140
      dxz     :    -0.001405
      dyz     :    -0.001277
      dx2y2   :    -0.000825
      dxy     :    -0.000772
  4 C s       :    -0.009023  s :    -0.009023
      pz      :    -0.119732  p :    -0.160628
      px      :    -0.015600
      py      :    -0.025295
      dz2     :     0.002650  d :     0.019851
      dxz     :     0.002963
      dyz     :     0.010541
      dx2y2   :     0.001861
      dxy     :     0.001837
  5 C s       :     0.019697  s :     0.019697
      pz      :     0.395417  p :     0.514673
      px      :     0.067930
      py      :     0.051326
      dz2     :    -0.001042  d :    -0.004597
      dxz     :    -0.000495
      dyz     :    -0.001625
      dx2y2   :    -0.000693
      dxy     :    -0.000741
  6 C s       :    -0.002564  s :    -0.002564
      pz      :    -0.003691  p :    -0.015502
      px      :    -0.008899
      py      :    -0.002912
      dz2     :     0.006266  d :     0.010680
      dxz     :     0.002690
      dyz     :     0.000308
      dx2y2   :     0.000787
      dxy     :     0.000630
  7 H s       :    -0.004428  s :    -0.004428
      pz      :     0.000558  p :     0.006220
      px      :     0.002594
      py      :     0.003067
  8 H s       :     0.005124  s :     0.005124
      pz      :    -0.000082  p :    -0.000263
      px      :    -0.000245
      py      :     0.000063
  9 H s       :    -0.014126  s :    -0.014126
      pz      :     0.009711  p :     0.013096
      px      :     0.000386
      py      :     0.002999
 10 H s       :     0.004886  s :     0.004886
      pz      :    -0.002853  p :    -0.004320
      px      :    -0.000862
      py      :    -0.000605
 11 H s       :    -0.016012  s :    -0.016012
      pz      :     0.009930  p :     0.014711
      px      :     0.002234
      py      :     0.002548
 12 H s       :     0.029795  s :     0.029795
      pz      :    -0.000575  p :    -0.000827
      px      :    -0.000201
      py      :    -0.000051
 13 H s       :     0.009022  s :     0.009022
      pz      :    -0.000194  p :    -0.000481
      px      :    -0.000267
      py      :    -0.000020


                      *****************************
                      * MAYER POPULATION ANALYSIS *
                      *****************************

  NA   - Mulliken gross atomic population
  ZA   - Total nuclear charge
  QA   - Mulliken gross atomic charge
  VA   - Mayer's total valence
  BVA  - Mayer's bonded valence
  FA   - Mayer's free valence

  ATOM       NA         ZA         QA         VA         BVA        FA
  0 O      8.2348     8.0000    -0.2348     2.0326     1.9826     0.0500
  1 O      8.2455     8.0000    -0.2455     1.9548     1.9360     0.0189
  2 C      5.9640     6.0000     0.0360     4.0309     4.0296     0.0013
  3 C      6.0190     6.0000    -0.0190     3.8042     3.5722     0.2321
  4 C      5.9932     6.0000     0.0068     3.8479     3.8120     0.0359
  5 C      6.0791     6.0000    -0.0791     3.9166     3.6184     0.2981
  6 C      5.9081     6.0000     0.0919     3.8051     3.8035     0.0016
  7 H      0.8131     1.0000     0.1869     1.0008     1.0008     0.0001
  8 H      0.9666     1.0000     0.0334     0.9854     0.9854     0.0000
  9 H      0.9512     1.0000     0.0488     0.9926     0.9915     0.0010
 10 H      0.9697     1.0000     0.0303     0.9856     0.9855     0.0001
 11 H      0.9724     1.0000     0.0276     0.9869     0.9855     0.0014
 12 H      0.9504     1.0000     0.0496     0.9788     0.9774     0.0014
 13 H      0.9327     1.0000     0.0673     1.0277     1.0276     0.0001

  Mayer bond orders larger than 0.100000
B(  0-O ,  1-O ) :   0.7957 B(  0-O ,  7-H ) :   0.9735 B(  1-O ,  2-C ) :   0.9699 
B(  2-C ,  3-C ) :   0.9807 B(  2-C ,  6-C ) :   1.0337 B(  2-C ,  8-H ) :   0.9367 
B(  3-C ,  4-C ) :   1.3510 B(  3-C ,  9-H ) :   0.9958 B(  4-C ,  5-C ) :   1.4198 
B(  4-C , 10-H ) :   0.9942 B(  5-C ,  6-C ) :   1.0057 B(  5-C , 11-H ) :   0.9785 
B(  6-C , 12-H ) :   0.9134 B(  6-C , 13-H ) :   0.9196 


------------------
HIRSHFELD ANALYSIS
------------------

Total integrated alpha density =     27.000023802
Total integrated beta density  =     26.000018251

  ATOM     CHARGE      SPIN    
   0 O   -0.204863    0.191839
   1 O   -0.118633   -0.050186
   2 C    0.051000    0.022902
   3 C   -0.013914    0.349199
   4 C   -0.038587   -0.050366
   5 C   -0.002753    0.414815
   6 C   -0.057027    0.027865
   7 H    0.157345    0.005472
   8 H    0.029924    0.006600
   9 H    0.048547    0.023371
  10 H    0.047726   -0.004875
  11 H    0.033028    0.026244
  12 H    0.033332    0.027913
  13 H    0.034833    0.009212

  TOTAL  -0.000042    1.000006

-------
TIMINGS
-------

Total SCF time: 0 days 0 hours 0 min 11 sec 

Total time                  ....      11.337 sec
Sum of individual times     ....      11.184 sec  ( 98.6%)

Fock matrix formation       ....      10.221 sec  ( 90.1%)
  Split-RI-J                ....       0.880 sec  (  8.6% of F)
  Chain of spheres X        ....       6.752 sec  ( 66.1% of F)
  XC integration            ....       2.487 sec  ( 24.3% of F)
    Basis function eval.    ....       0.676 sec  ( 27.2% of XC)
    Density eval.           ....       0.640 sec  ( 25.7% of XC)
    XC-Functional eval.     ....       0.233 sec  (  9.4% of XC)
    XC-Potential eval.      ....       0.736 sec  ( 29.6% of XC)
Diagonalization             ....       0.185 sec  (  1.6%)
Density matrix formation    ....       0.010 sec  (  0.1%)
Population analysis         ....       0.139 sec  (  1.2%)
Initial guess               ....       0.037 sec  (  0.3%)
Orbital Transformation      ....       0.000 sec  (  0.0%)
Orbital Orthonormalization  ....       0.000 sec  (  0.0%)
DIIS solution               ....       0.126 sec  (  1.1%)
Grid generation             ....       0.467 sec  (  4.1%)

Maximum memory used throughout the entire SCF-calculation: 50.8 MB


-------------------------------------------------------------------------------
                          DFT DISPERSION CORRECTION                            
                                                                               
                              DFTD3 V3.1  Rev 1                                
                          USING Becke-Johnson damping                          
-------------------------------------------------------------------------------
The PBE0 functional is recognized
Active option DFTDOPT                   ...         4   

molecular C6(AA) [au] = 1786.571826 


            DFT-D V3
 parameters
 s6 scaling factor         :     1.0000 
 a1 scaling factor         :     0.4145 
 s8 scaling factor         :     1.2177 
 a2 scaling factor         :     4.8593 
 ad hoc parameters k1-k3   :    16.0000     1.3333    -4.0000 

 Edisp/kcal,au: -6.444151886995  -0.010269408616 
 E6   /kcal   :  -4.094397059 
 E8   /kcal   :  -2.349754828 
 % E8         :  36.463368174 

-------------------------   ----------------
Dispersion correction           -0.010269409
-------------------------   ----------------


-------------------------   --------------------
FINAL SINGLE POINT ENERGY      -344.352722205863
-------------------------   --------------------



           ************************************************************
           *        Program running with 8 parallel MPI-processes     *
           *              working on a common directory               *
           ************************************************************
------------------------------------------------------------------------------
                         ORCA SCF GRADIENT CALCULATION
------------------------------------------------------------------------------

 ... reading COSX grid (gridx3)
Gradient of the Kohn-Sham DFT energy:
Kohn-Sham wavefunction type      ... UKS
Hartree-Fock exchange scaling    ...    0.250
Number of operators              ...    2
Number of atoms                  ...   14
Basis set dimensions             ...  133
Integral neglect threshold       ... 2.5e-11
Integral primitive cutoff        ... 2.5e-12
SHARK Integral package           ... ON

Nuc. rep. gradient       (SHARK) ... done (  0.0 sec)
HCore & Overlap gradient (SHARK) ... done (  0.0 sec)
RI-J gradient            (SHARK) ... done (  0.1 sec)
COSX-gradient                    ... done (  0.9 sec)
Exchange-correlation gradient    ... done
Dispersion correction            ... done

------------------
CARTESIAN GRADIENT
------------------

   1   O   :   -0.039747463   -0.026194052   -0.008438106
   2   O   :    0.069139606    0.020080719   -0.045607645
   3   C   :    0.023339750   -0.016609722    0.023463951
   4   C   :    0.009601376   -0.012810732    0.000288360
   5   C   :   -0.019493761    0.005780398   -0.003815167
   6   C   :   -0.041509048    0.029459339    0.011142613
   7   C   :   -0.003281374    0.003140455    0.024535905
   8   H   :   -0.000296833   -0.001502086    0.001415912
   9   H   :    0.004281337   -0.001238551   -0.003736010
  10   H   :    0.002150317    0.000437603    0.000849016
  11   H   :    0.000378847    0.001390329    0.000574651
  12   H   :   -0.001195595    0.000056542   -0.000850122
  13   H   :   -0.003914085    0.001207552    0.000836858
  14   H   :    0.000509221   -0.003156464   -0.000718151

Difference to translation invariance:
           :   -0.0000377059    0.0000413308   -0.0000579353

Difference to rotation invariance:
           :    0.0003200919   -0.0004005560    0.0003022552

Norm of the cartesian gradient     ...    0.1227617613
RMS gradient                       ...    0.0189425510
MAX gradient                       ...    0.0691396063

-------
TIMINGS
-------

Total SCF gradient time            ...        1.716 sec

One electron gradient       ....       0.016 sec  (  1.0%)
RI-J Coulomb gradient       ....       0.127 sec  (  7.4%)
COSX gradient               ....       0.886 sec  ( 51.6%)
XC gradient                 ....       0.490 sec  ( 28.6%)

Maximum memory used throughout the entire SCFGRAD-calculation: 38.8 MB
------------------------------------------------------------------------------
                         ORCA GEOMETRY RELAXATION STEP
------------------------------------------------------------------------------

Reading the OPT-File                    .... done
Getting information on internals        .... done
Copying old internal coords+grads       .... done
Making the new internal coordinates     .... (new redundants).... done
Validating the new internal coordinates .... (new redundants).... done
Calculating the B-matrix                .... done
Calculating the G,G- and P matrices     .... done
Transforming gradient to internals      .... done
Projecting the internal gradient        .... done
Number of atoms                         ....  14
Number of internal coordinates          ....  71
[...]
      px      :     0.967513
      py      :     0.916180
      dz2     :     0.005479  d :     0.035482
      dxz     :     0.004817
      dyz     :     0.005216
      dx2y2   :     0.008590
      dxy     :     0.011381
  6 C s       :     2.982505  s :     2.982505
      pz      :     0.946882  p :     2.902158
      px      :     0.941390
      py      :     1.013886
      dz2     :     0.008881  d :     0.034491
      dxz     :     0.006236
      dyz     :     0.004504
      dx2y2   :     0.006740
      dxy     :     0.008131
  7 H s       :     0.747550  s :     0.747550
      pz      :     0.034841  p :     0.067010
      px      :     0.014079
      py      :     0.018090
  8 H s       :     0.936740  s :     0.936740
      pz      :     0.004147  p :     0.020721
      px      :     0.010859
      py      :     0.005715
  9 H s       :     0.925649  s :     0.925649
      pz      :     0.006450  p :     0.023976
      px      :     0.003136
      py      :     0.014390
 10 H s       :     0.942750  s :     0.942750
      pz      :     0.006318  p :     0.023567
      px      :     0.013409
      py      :     0.003840
 11 H s       :     0.941071  s :     0.941071
      pz      :     0.004540  p :     0.023672
      px      :     0.007619
      py      :     0.011512
 12 H s       :     0.918434  s :     0.918434
      pz      :     0.014036  p :     0.022994
      px      :     0.004529
      py      :     0.004430
 13 H s       :     0.909258  s :     0.909258
      pz      :     0.004704  p :     0.023838
      px      :     0.008620
      py      :     0.010513

SPIN
  0 O s       :     0.000992  s :     0.000992
      pz      :     0.006485  p :     0.237313
      px      :     0.116552
      py      :     0.114276
      dz2     :    -0.000012  d :    -0.000016
      dxz     :     0.000057
      dyz     :     0.000011
      dx2y2   :     0.000002
      dxy     :    -0.000073
  1 O s       :     0.005702  s :     0.005702
      pz      :     0.005995  p :    -0.107891
      px      :    -0.030885
      py      :    -0.083001
      dz2     :     0.000194  d :     0.000806
      dxz     :     0.000018
      dyz     :     0.000011
      dx2y2   :     0.000008
      dxy     :     0.000575
  2 C s       :    -0.011416  s :    -0.011416
      pz      :    -0.005313  p :    -0.028365
      px      :    -0.016518
      py      :    -0.006533
      dz2     :    -0.000643  d :     0.003107
      dxz     :     0.002483
      dyz     :     0.001455
      dx2y2   :     0.000044
      dxy     :    -0.000232
  3 C s       :     0.083956  s :     0.083956
      pz      :     0.431735  p :     0.524873
      px      :     0.036300
      py      :     0.056838
      dz2     :    -0.000951  d :    -0.002732
      dxz     :    -0.000570
      dyz     :    -0.000865
      dx2y2   :    -0.000198
      dxy     :    -0.000150
  4 C s       :    -0.054150  s :    -0.054150
      pz      :    -0.164748  p :    -0.255752
      px      :    -0.038717
      py      :    -0.052288
      dz2     :     0.000964  d :     0.007639
      dxz     :     0.001182
      dyz     :     0.004278
      dx2y2   :     0.000532
      dxy     :     0.000683
  5 C s       :     0.087474  s :     0.087474
      pz      :     0.412604  p :     0.583662
      px      :     0.108595
      py      :     0.062464
      dz2     :    -0.000617  d :    -0.002274
      dxz     :    -0.000594
      dyz     :    -0.000745
      dx2y2   :    -0.000142
      dxy     :    -0.000175
  6 C s       :    -0.016349  s :    -0.016349
      pz      :    -0.013003  p :    -0.041918
      px      :    -0.022954
      py      :    -0.005961
      dz2     :     0.002146  d :     0.003483
      dxz     :     0.000609
      dyz     :     0.000308
      dx2y2   :     0.000302
      dxy     :     0.000118
  7 H s       :    -0.006997  s :    -0.006997
      pz      :     0.000043  p :     0.001835
      px      :     0.000887
      py      :     0.000906
  8 H s       :     0.003040  s :     0.003040
      pz      :    -0.000025  p :    -0.000052
      px      :    -0.000061
      py      :     0.000034
  9 H s       :    -0.031930  s :    -0.031930
      pz      :     0.002442  p :     0.003005
      px      :    -0.000008
      py      :     0.000571
 10 H s       :     0.011993  s :     0.011993
      pz      :    -0.000783  p :    -0.001056
      px      :    -0.000175
      py      :    -0.000098
 11 H s       :    -0.036166  s :    -0.036166
      pz      :     0.002459  p :     0.003467
      px      :     0.000559
      py      :     0.000449
 12 H s       :     0.029748  s :     0.029748
      pz      :    -0.000258  p :    -0.000194
      px      :     0.000044
      py      :     0.000020
 13 H s       :     0.005215  s :     0.005215
      pz      :    -0.000057  p :    -0.000051
      px      :    -0.000066
      py      :     0.000073


                     *******************************
                     * LOEWDIN POPULATION ANALYSIS *
                     *******************************

-------------------------------------------
LOEWDIN ATOMIC CHARGES AND SPIN POPULATIONS
-------------------------------------------
   0 O :   -0.132387    0.217730
   1 O :   -0.089291   -0.078635
   2 C :    0.037621    0.002249
   3 C :   -0.005210    0.469032
   4 C :   -0.034332   -0.165465
   5 C :    0.017879    0.531484
   6 C :   -0.054545   -0.007755
   7 H :    0.065511    0.002129
   8 H :    0.019917    0.002323
   9 H :    0.031971   -0.000825
  10 H :    0.035458    0.000826
  11 H :    0.025787   -0.001326
  12 H :    0.040714    0.023346
  13 H :    0.040908    0.004887

----------------------------------------------------
LOEWDIN REDUCED ORBITAL CHARGES AND SPIN POPULATIONS
----------------------------------------------------
CHARGE
  0 O s       :     3.641320  s :     3.641320
      pz      :     1.474192  p :     4.475532
      px      :     1.407368
      py      :     1.593972
      dz2     :     0.009007  d :     0.015535
      dxz     :     0.000807
      dyz     :     0.002187
      dx2y2   :     0.001160
      dxy     :     0.002374
  1 O s       :     3.650156  s :     3.650156
      pz      :     1.502423  p :     4.414578
      px      :     1.358961
      py      :     1.553194
      dz2     :     0.009291  d :     0.024557
      dxz     :     0.003814
      dyz     :     0.004989
      dx2y2   :     0.001751
      dxy     :     0.004712
  2 C s       :     2.856290  s :     2.856290
      pz      :     0.887308  p :     2.931868
      px      :     1.032083
      py      :     1.012477
      dz2     :     0.044374  d :     0.174221
      dxz     :     0.035521
      dyz     :     0.047647
      dx2y2   :     0.015012
      dxy     :     0.031666
  3 C s       :     2.905647  s :     2.905647
      pz      :     0.972470  p :     3.018141
      px      :     1.015087
      py      :     1.030584
      dz2     :     0.005892  d :     0.081423
      dxz     :     0.010475
      dyz     :     0.010144
      dx2y2   :     0.024531
      dxy     :     0.030380
  4 C s       :     2.870095  s :     2.870095
      pz      :     0.972419  p :     3.066671
      px      :     1.039033
      py      :     1.055220
      dz2     :     0.008051  d :     0.097566
      dxz     :     0.011956
      dyz     :     0.017259
      dx2y2   :     0.029269
      dxy     :     0.031031
  5 C s       :     2.894405  s :     2.894405
      pz      :     0.942423  p :     3.001342
      px      :     1.010900
      py      :     1.048019
      dz2     :     0.011153  d :     0.086375
      dxz     :     0.011183
      dyz     :     0.011998
      dx2y2   :     0.024262
      dxy     :     0.027779
  6 C s       :     2.844875  s :     2.844875
      pz      :     1.039278  p :     3.119456
      px      :     1.029233
      py      :     1.050945
      dz2     :     0.023981  d :     0.090215
      dxz     :     0.015832
      dyz     :     0.011553
      dx2y2   :     0.018076
      dxy     :     0.020774
  7 H s       :     0.752511  s :     0.752511
      pz      :     0.096199  p :     0.181978
      px      :     0.038038
      py      :     0.047740
  8 H s       :     0.913430  s :     0.913430
      pz      :     0.014657  p :     0.066653
      px      :     0.032534
      py      :     0.019461
  9 H s       :     0.893775  s :     0.893775
      pz      :     0.020863  p :     0.074254
      px      :     0.011775
      py      :     0.041616
 10 H s       :     0.896115  s :     0.896115
      pz      :     0.018385  p :     0.068427
      px      :     0.037586
      py      :     0.012456
 11 H s       :     0.902166  s :     0.902166
      pz      :     0.015036  p :     0.072047
      px      :     0.024374
      py      :     0.032637
 12 H s       :     0.891814  s :     0.891814
      pz      :     0.040332  p :     0.067472
      px      :     0.013192
      py      :     0.013948
 13 H s       :     0.888707  s :     0.888707
      pz      :     0.013234  p :     0.070385
      px      :     0.024800
      py      :     0.032351

SPIN
  0 O s       :     0.000935  s :     0.000935
      pz      :     0.003917  p :     0.217031
      px      :     0.106594
      py      :     0.106519
      dz2     :    -0.000057  d :    -0.000236
      dxz     :     0.000017
      dyz     :    -0.000027
      dx2y2   :    -0.000044
      dxy     :    -0.000126
  1 O s       :     0.013976  s :     0.013976
      pz      :     0.005070  p :    -0.094162
      px      :    -0.023684
      py      :    -0.075548
      dz2     :     0.000179  d :     0.001551
      dxz     :    -0.000004
      dyz     :    -0.000006
      dx2y2   :     0.000047
      dxy     :     0.001335
  2 C s       :    -0.000051  s :    -0.000051
      pz      :     0.001805  p :    -0.005223
      px      :    -0.004890
      py      :    -0.002138
      dz2     :    -0.001097  d :     0.007522
      dxz     :     0.005576
      dyz     :     0.003069
      dx2y2   :     0.000139
      dxy     :    -0.000165
  3 C s       :     0.017532  s :     0.017532
      pz      :     0.391602  p :     0.456643
      px      :     0.023196
      py      :     0.041845
      dz2     :    -0.000926  d :    -0.005143
      dxz     :    -0.001379
      dyz     :    -0.001198
      dx2y2   :    -0.000889
      dxy     :    -0.000751
  4 C s       :    -0.009812  s :    -0.009812
      pz      :    -0.127343  p :    -0.174628
      px      :    -0.021679
      py      :    -0.025605
      dz2     :     0.002055  d :     0.018974
      dxz     :     0.002883
      dyz     :     0.009995
      dx2y2   :     0.001738
      dxy     :     0.002303
  5 C s       :     0.020500  s :     0.020500
      pz      :     0.374677  p :     0.515788
      px      :     0.095260
      py      :     0.045851
      dz2     :    -0.000996  d :    -0.004804
      dxz     :    -0.000686
      dyz     :    -0.001594
      dx2y2   :    -0.000687
      dxy     :    -0.000841
  6 C s       :    -0.002374  s :    -0.002374
      pz      :    -0.003654  p :    -0.014367
      px      :    -0.008585
      py      :    -0.002128
      dz2     :     0.005475  d :     0.008985
      dxz     :     0.001511
      dyz     :     0.000743
      dx2y2   :     0.000941
      dxy     :     0.000315
  7 H s       :    -0.004610  s :    -0.004610
      pz      :     0.000634  p :     0.006739
      px      :     0.002947
      py      :     0.003159
  8 H s       :     0.002583  s :     0.002583
      pz      :    -0.000068  p :    -0.000260
      px      :    -0.000214
      py      :     0.000023
  9 H s       :    -0.014239  s :    -0.014239
      pz      :     0.009885  p :     0.013414
      px      :     0.000559
      py      :     0.002970
 10 H s       :     0.005527  s :     0.005527
      pz      :    -0.003063  p :    -0.004702
      px      :    -0.001032
      py      :    -0.000607
 11 H s       :    -0.016040  s :    -0.016040
      pz      :     0.009374  p :     0.014714
      px      :     0.002864
      py      :     0.002476
 12 H s       :     0.024017  s :     0.024017
      pz      :    -0.000482  p :    -0.000671
      px      :    -0.000131
      py      :    -0.000057
 13 H s       :     0.005190  s :     0.005190
      pz      :    -0.000188  p :    -0.000303
      px      :    -0.000160
      py      :     0.000045


                      *****************************
                      * MAYER POPULATION ANALYSIS *
                      *****************************

  NA   - Mulliken gross atomic population
  ZA   - Total nuclear charge
  QA   - Mulliken gross atomic charge
  VA   - Mayer's total valence
  BVA  - Mayer's bonded valence
  FA   - Mayer's free valence

  ATOM       NA         ZA         QA         VA         BVA        FA
  0 O      8.2384     8.0000    -0.2384     2.0174     1.9595     0.0579
  1 O      8.2607     8.0000    -0.2607     1.9440     1.9213     0.0227
  2 C      5.9566     6.0000     0.0434     3.9921     3.9907     0.0014
  3 C      6.0242     6.0000    -0.0242     3.8071     3.5593     0.2478
  4 C      5.9969     6.0000     0.0031     3.8486     3.8074     0.0412
  5 C      6.0769     6.0000    -0.0769     3.9126     3.6162     0.2964
  6 C      5.9192     6.0000     0.0808     3.8095     3.8081     0.0015
  7 H      0.8146     1.0000     0.1854     1.0021     1.0020     0.0001
  8 H      0.9575     1.0000     0.0425     0.9892     0.9892     0.0000
  9 H      0.9496     1.0000     0.0504     0.9920     0.9910     0.0011
 10 H      0.9663     1.0000     0.0337     0.9863     0.9861     0.0001
 11 H      0.9647     1.0000     0.0353     0.9887     0.9873     0.0013
 12 H      0.9414     1.0000     0.0586     0.9775     0.9766     0.0009
 13 H      0.9331     1.0000     0.0669     1.0156     1.0156     0.0000

  Mayer bond orders larger than 0.100000
B(  0-O ,  1-O ) :   0.7945 B(  0-O ,  7-H ) :   0.9751 B(  1-O ,  2-C ) :   0.9481 
B(  1-O ,  3-C ) :   0.1020 B(  2-C ,  3-C ) :   0.9805 B(  2-C ,  6-C ) :   1.0174 
B(  2-C ,  8-H ) :   0.9487 B(  3-C ,  4-C ) :   1.3361 B(  3-C ,  9-H ) :   0.9928 
B(  4-C ,  5-C ) :   1.4348 B(  4-C , 10-H ) :   0.9932 B(  5-C ,  6-C ) :   0.9973 
B(  5-C , 11-H ) :   0.9802 B(  6-C , 12-H ) :   0.9244 B(  6-C , 13-H ) :   0.9268 



------------------
HIRSHFELD ANALYSIS
------------------

Total integrated alpha density =     27.000019301
Total integrated beta density  =     26.000016362

  ATOM     CHARGE      SPIN    
   0 O   -0.214760    0.209123
   1 O   -0.124615   -0.060369
   2 C    0.056103    0.023005
   3 C   -0.014321    0.364642
   4 C   -0.039027   -0.063754
   5 C   -0.002456    0.416357
   6 C   -0.051981    0.026019
   7 H    0.155983    0.006042
   8 H    0.036317    0.003928
   9 H    0.045968    0.024376
  10 H    0.046759   -0.005450
  11 H    0.038009    0.026526
  12 H    0.033874    0.023471
  13 H    0.034110    0.006086

  TOTAL  -0.000036    1.000003

-------
TIMINGS
-------

Total SCF time: 0 days 0 hours 0 min 6 sec 

Total time                  ....       6.739 sec
Sum of individual times     ....       6.607 sec  ( 98.0%)

Fock matrix formation       ....       5.870 sec  ( 87.1%)
  Split-RI-J                ....       0.486 sec  (  8.3% of F)
  Chain of spheres X        ....       4.208 sec  ( 71.7% of F)
  XC integration            ....       1.130 sec  ( 19.3% of F)
    Basis function eval.    ....       0.334 sec  ( 29.6% of XC)
    Density eval.           ....       0.296 sec  ( 26.2% of XC)
    XC-Functional eval.     ....       0.116 sec  ( 10.3% of XC)
    XC-Potential eval.      ....       0.252 sec  ( 22.3% of XC)
Diagonalization             ....       0.093 sec  (  1.4%)
Density matrix formation    ....       0.006 sec  (  0.1%)
Population analysis         ....       0.140 sec  (  2.1%)
Initial guess               ....       0.008 sec  (  0.1%)
Orbital Transformation      ....       0.000 sec  (  0.0%)
Orbital Orthonormalization  ....       0.004 sec  (  0.1%)
DIIS solution               ....       0.061 sec  (  0.9%)
Grid generation             ....       0.428 sec  (  6.4%)

Maximum memory used throughout the entire SCF-calculation: 50.7 MB


-------------------------------------------------------------------------------
                          DFT DISPERSION CORRECTION                            
                                                                               
                              DFTD3 V3.1  Rev 1                                
                          USING Becke-Johnson damping                          
-------------------------------------------------------------------------------
The PBE0 functional is recognized
Active option DFTDOPT                   ...         4   

molecular C6(AA) [au] = 1797.362250 


            DFT-D V3
 parameters
 s6 scaling factor         :     1.0000 
 a1 scaling factor         :     0.4145 
 s8 scaling factor         :     1.2177 
 a2 scaling factor         :     4.8593 
 ad hoc parameters k1-k3   :    16.0000     1.3333    -4.0000 

 Edisp/kcal,au: -6.435662787675  -0.010255880377 
 E6   /kcal   :  -4.086972493 
 E8   /kcal   :  -2.348690295 
 % E8         :  36.494924799 

-------------------------   ----------------
Dispersion correction           -0.010255880
-------------------------   ----------------


-------------------------   --------------------
FINAL SINGLE POINT ENERGY      -344.359757590118
-------------------------   --------------------

                                *** OPTIMIZATION RUN DONE ***

                            ***************************************
                            *     ORCA property calculations      *
                            ***************************************

                                    ---------------------
                                    Active property flags
                                    ---------------------
   (+) Dipole Moment


------------------------------------------------------------------------------
                       ORCA ELECTRIC PROPERTIES CALCULATION
------------------------------------------------------------------------------

Dipole Moment Calculation                       ... on
Quadrupole Moment Calculation                   ... off
Polarizability Calculation                      ... off
GBWName                                         ... path_opt2_orca.gbw
Electron density                                ... path_opt2_orca.scfp
The origin for moment calculation is the CENTER OF MASS  = (-0.345276,  0.029319  0.331913)

-------------
DIPOLE MOMENT
-------------
                                X             Y             Z
Electronic contribution:     -1.07102       0.55479       1.83967
Nuclear contribution   :      1.63316      -0.49952      -1.92716
                        -----------------------------------------
Total Dipole Moment    :      0.56215       0.05527      -0.08749
                        -----------------------------------------
Magnitude (a.u.)       :      0.57159
Magnitude (Debye)      :      1.45287



--------------------
Rotational spectrum 
--------------------
 
Rotational constants in cm-1:     0.173829     0.074960     0.065292 
Rotational constants in MHz :  5211.250055  2247.246034  1957.412230 

 Dipole components along the rotational axes: 
x,y,z [a.u.] :    -0.556652    -0.050431     0.119640 
x,y,z [Debye]:    -1.414897    -0.128185     0.304101 

 

Timings for individual modules:

Sum of individual times         ...       72.616 sec (=   1.210 min)
GTO integral calculation        ...        2.838 sec (=   0.047 min)   3.9 %
SCF iterations                  ...       57.368 sec (=   0.956 min)  79.0 %
SCF Gradient evaluation         ...       12.232 sec (=   0.204 min)  16.8 %
Geometry relaxation             ...        0.178 sec (=   0.003 min)   0.2 %
                             ****ORCA TERMINATED NORMALLY****
TOTAL RUN TIME: 0 days 0 hours 1 minutes 14 seconds 808 msec
