      -----------------------------------------------------------      
     |                   =====================                   |     
     |                           x T B                           |     
     |                   =====================                   |     
     |                         S. Grimme                         |     
     |          Mulliken Center for Theoretical Chemistry        |     
     |                    University of Bonn                     |     
      -----------------------------------------------------------      

   * xtb version 6.6.1 (8d0f1dd) compiled by 'conda@1efc2f54142f' on 2023-08-01

   xtb is free software: you can redistribute it and/or modify it under
   the terms of the GNU Lesser General Public License as published by
   the Free Software Foundation, either version 3 of the License, or
   (at your option) any later version.
   
   xtb is distributed in the hope that it will be useful,
   but WITHOUT ANY WARRANTY; without even the implied warranty of
   MERCHANTABILITY or FITNESS FOR A PARTICULAR PURPOSE.  See the
   GNU Lesser General Public License for more details.
   
   Cite this work as:
   * C. Bannwarth, E. Caldeweyher, S. Ehlert, A. Hansen, P. Pracht,
     J. Seibert, S. Spicher, S. Grimme, WIREs Comput. Mol. Sci., 2020, 11,
     e01493. DOI: 10.1002/wcms.1493
   
   for GFN2-xTB:
   * C. Bannwarth, S. Ehlert and S. Grimme., J. Chem. Theory Comput., 2019,
     15, 1652-1671. DOI: 10.1021/acs.jctc.8b01176
   for GFN1-xTB:
   * S. Grimme, C. Bannwarth, P. Shushkov, J. Chem. Theory Comput., 2017,
     13, 1989-2009. DOI: 10.1021/acs.jctc.7b00118
   for GFN0-xTB:
   * P. Pracht, E. Caldeweyher, S. Ehlert, S. Grimme, ChemRxiv, 2019, preprint.
     DOI: 10.26434/chemrxiv.8326202.v1
   for GFN-FF:
   * S. Spicher and S. Grimme, Angew. Chem. Int. Ed., 2020, 59, 15665-15673.
     DOI: 10.1002/anie.202004239
   
   for ALPB and GBSA implicit solvation:
   * S. Ehlert, M. Stahn, S. Spicher, S. Grimme, J. Chem. Theory Comput.,
     2021, 17, 4250-4261. DOI: 10.1021/acs.jctc.1c00471
   
   for DFT-D4:
   * E. Caldeweyher, C. Bannwarth and S. Grimme, J. Chem. Phys., 2017,
     147, 034112. DOI: 10.1063/1.4993215
   * E. Caldeweyher, S. Ehlert, A. Hansen, H. Neugebauer, S. Spicher,
     C. Bannwarth and S. Grimme, J. Chem. Phys., 2019, 150, 154122.
     DOI: 10.1063/1.5090222
   * E. Caldeweyher, J.-M. Mewes, S. Ehlert and S. Grimme, Phys. Chem. Chem. Phys.
     2020, 22, 8499-8512. DOI: 10.1039/D0CP00502A
   
   for sTDA-xTB:
   * S. Grimme and C. Bannwarth, J. Chem. Phys., 2016, 145, 054103.
     DOI: 10.1063/1.4959605
   
   in the mass-spec context:
   * V. Asgeirsson, C. Bauer and S. Grimme, Chem. Sci., 2017, 8, 4879.
     DOI: 10.1039/c7sc00601b
   * J. Koopman and S. Grimme, ACS Omega 2019, 4, 12, 15120-15133.
     DOI: 10.1021/acsomega.9b02011
   
   for metadynamics refer to:
   * S. Grimme, J. Chem. Theory Comput., 2019, 155, 2847-2862
     DOI: 10.1021/acs.jctc.9b00143
   
   for SPH calculations refer to:
   * S. Spicher and S. Grimme, J. Chem. Theory Comput., 2021, 17, 1701-1714
     DOI: 10.1021/acs.jctc.0c01306
   
   with help from (in alphabetical order)
   P. Atkinson, C. Bannwarth, F. Bohle, G. Brandenburg, E. Caldeweyher
   M. Checinski, S. Dohm, S. Ehlert, S. Ehrlich, I. Gerasimov, C. Hölzer
   A. Katbashev, J. Koopman, C. Lavigne, S. Lehtola, F. März, M. Müller,
   F. Musil, H. Neugebauer, J. Pisarek, C. Plett, P. Pracht, F. Pultar,
   J. Seibert, P. Shushkov, S. Spicher, M. Stahn, M. Steiner, T. Strunk,
   J. Stückrath, T. Rose, and J. Unsleber
   
 * started run on 2025/05/23 at 12:05:44.892     

           -------------------------------------------------
          |                Calculation Setup                |
           -------------------------------------------------

          program call               : /gpfs/fs1/home/copan/code/autode-practice/.pixi/envs/default/bin/xtb path_opt2_xtb.xyz --chrg 0 --uhf 1 --opt --input xcontrol_path_opt2_xtb
          hostname                   : csed-0029
          coordinate file            : path_opt2_xtb.xyz
          omp threads                :                     8

   ID    Z sym.   atoms
    1    8 O      1, 2
    2    6 C      3-7
    3    1 H      8-14
constraining bond 2 6 to    2.6266000 Å, actual value:    2.8928087 Å
constraining bond 1 2 to    1.7221000 Å, actual value:    1.6659069 Å

           -------------------------------------------------
          |                 G F N 2 - x T B                 |
           -------------------------------------------------

        Reference                      10.1021/acs.jctc.8b01176
      * Hamiltonian:
        H0-scaling (s, p, d)           1.850000    2.230000    2.230000
        zeta-weighting                 0.500000
      * Dispersion:
        s8                             2.700000
        a1                             0.520000
        a2                             5.000000
        s9                             5.000000
      * Repulsion:
        kExp                           1.500000    1.000000
        rExp                           1.000000
      * Coulomb:
        alpha                          2.000000
        third order                    shell-resolved
        anisotropic                    true
        a3                             3.000000
        a5                             4.000000
        cn-shift                       1.200000
        cn-exp                         4.000000
        max-rad                        5.000000


          ...................................................
          :                      SETUP                      :
          :.................................................:
          :  # basis functions                  35          :
          :  # atomic orbitals                  35          :
          :  # shells                           21          :
          :  # electrons                        39          :
          :  max. iterations                   250          :
          :  Hamiltonian                  GFN2-xTB          :
          :  restarted?                      false          :
          :  GBSA solvation                  false          :
          :  PC potential                    false          :
          :  electronic temp.          300.0000000     K    :
          :  accuracy                    1.0000000          :
          :  -> integral cutoff          0.2500000E+02      :
          :  -> integral neglect         0.1000000E-07      :
          :  -> SCF convergence          0.1000000E-05 Eh   :
          :  -> wf. convergence          0.1000000E-03 e    :
          :  Broyden damping             0.4000000          :
          ...................................................

 iter      E             dE          RMSdq      gap      omega  full diag
   1    -22.4554515 -0.224555E+02  0.406E+00    1.80       0.0  T
   2    -22.4757392 -0.202877E-01  0.220E+00    2.42       1.0  T
   3    -22.4722890  0.345017E-02  0.108E+00    1.85       1.0  T
   4    -22.4776874 -0.539843E-02  0.291E-01    2.08       1.0  T
   5    -22.4786312 -0.943776E-03  0.121E-01    2.08       1.0  T
   6    -22.4787846 -0.153338E-03  0.510E-02    2.06       1.0  T
   7    -22.4787933 -0.874570E-05  0.264E-02    2.07       1.0  T
   8    -22.4787958 -0.245609E-05  0.906E-03    2.06       2.9  T
   9    -22.4787960 -0.284736E-06  0.375E-03    2.06       7.1  T
  10    -22.4787961 -0.434607E-07  0.196E-03    2.06      13.6  T
  11    -22.4787961 -0.173595E-07  0.688E-04    2.06      38.8  T
  12    -22.4787961 -0.208103E-08  0.390E-04    2.06      68.5  T

   *** convergence criteria satisfied after 12 iterations ***

         #    Occupation            Energy/Eh            Energy/eV
      -------------------------------------------------------------
         1        2.0000           -0.6980062             -18.9937
       ...           ...                  ...                  ...
        14        2.0000           -0.4728078             -12.8658
        15        2.0000           -0.4670953             -12.7103
        16        2.0000           -0.4557397             -12.4013
        17        2.0000           -0.4520085             -12.2998
        18        2.0000           -0.4424684             -12.0402
        19        2.0000           -0.4071065             -11.0779
        20        1.0000           -0.3391824              -9.2296 (HOMO)
        21                         -0.2633639              -7.1665 (LUMO)
        22                         -0.1844667              -5.0196
        23                          0.0459962               1.2516
        24                          0.0820966               2.2340
        25                          0.1078430               2.9346
       ...                                ...                  ...
        35                          0.6067014              16.5092
      -------------------------------------------------------------
                  HL-Gap            0.0758185 Eh            2.0631 eV
             Fermi-level           -0.3372088 Eh           -9.1759 eV

 SCC (total)                   0 d,  0 h,  0 min,  0.010 sec
 SCC setup                      ...        0 min,  0.000 sec (  1.989%)
 Dispersion                     ...        0 min,  0.000 sec (  1.164%)
 classical contributions        ...        0 min,  0.000 sec (  1.786%)
 integral evaluation            ...        0 min,  0.000 sec (  4.320%)
 iterations                     ...        0 min,  0.007 sec ( 78.073%)
 molecular gradient             ...        0 min,  0.001 sec ( 10.105%)
 printout                       ...        0 min,  0.000 sec (  2.315%)

         :::::::::::::::::::::::::::::::::::::::::::::::::::::
         ::                     SUMMARY                     ::
         :::::::::::::::::::::::::::::::::::::::::::::::::::::
         :: total energy             -21.697444100292 Eh    ::
         :: gradient norm              2.999921423145 Eh/a0 ::
         :: HOMO-LUMO gap              2.063126970397 eV    ::
         ::.................................................::
         :: SCC energy               -22.478796104700 Eh    ::
         :: -> isotropic ES            0.038611105783 Eh    ::
         :: -> anisotropic ES         -0.007266278077 Eh    ::
         :: -> anisotropic XC          0.005305934055 Eh    ::
         :: -> dispersion             -0.008760056500 Eh    ::
         :: repulsion energy           0.252638912173 Eh    ::
         :: add. restraining           0.528694251188 Eh    ::
         :: total charge               0.000000000000 e     ::
         :::::::::::::::::::::::::::::::::::::::::::::::::::::

      ----------------------------------------------------------- 
     |                   =====================                   |
     |                        A N C O P T                        |
     |                   =====================                   |
     |               Approximate Normal Coordinate               |
     |                Rational Function Optimizer                |
      ----------------------------------------------------------- 

          ...................................................
          :                      SETUP                      :
          :.................................................:
          :   optimization level            normal          :
          :   max. optcycles                   200          :
          :   ANC micro-cycles                  20          :
          :   degrees of freedom                36          :
          :.................................................:
          :   RF solver                   davidson          :
          :   write xtbopt.log                true          :
          :   linear?                        false          :
          :   energy convergence         0.5000000E-05 Eh   :
          :   grad. convergence          0.1000000E-02 Eh/α :
          :   maxmium RF displ.          1.0000000          :
          :   Hlow (freq-cutoff)         0.1000000E-01      :
          :   Hmax (freq-cutoff)         5.0000000          :
          :   S6 in model hess.         20.0000000          :
          ...................................................

generating ANC from model Hessian ...
Using Lindh-Hessian (1995)
 Shifting diagonal of input Hessian by   0.15639624941488584     
 Lowest  eigenvalues of input Hessian
    0.010000    0.104465    0.000000    0.000000    0.000000    0.000000
    0.000000    0.000000    0.166009    0.174183    0.178571    0.194270
    0.208021    0.212965    0.214831    0.222249    0.234245    0.252319
 Highest eigenvalues
    1.568302    1.766948    1.916326    2.112680    6.882206   10.738442


........................................................................
.............................. CYCLE    1 ..............................
........................................................................

 iter      E             dE          RMSdq      gap      omega  full diag
   1    -22.4787961 -0.224788E+02  0.799E-05    2.06       0.0  T
   2    -22.4787961 -0.745359E-11  0.459E-05    2.06     582.0  T
   3    -22.4787961  0.231992E-11  0.294E-05    2.06     909.5  T
     SCC iter.                  ...        0 min,  0.002 sec
     gradient                   ...        0 min,  0.001 sec
 * total energy  :   -21.6974441 Eh     change       -0.8011831E-09 Eh
   gradient norm :     2.9999225 Eh/α   predicted     0.0000000E+00 (-100.00%)
   displ. norm   :     0.4761601 α      lambda       -0.1416773E+01
   maximum displ.:     0.4031339 α      in ANC's #35, #36, #28, ...

........................................................................
.............................. CYCLE    2 ..............................
........................................................................

 iter      E             dE          RMSdq      gap      omega  full diag
   1    -22.4204484 -0.224204E+02  0.136E+00    1.73       0.0  T
   2    -22.4192871  0.116128E-02  0.155E+00    2.27       1.0  T
   3    -22.4560310 -0.367439E-01  0.417E-01    1.89       1.0  T
   4    -22.4561891 -0.158116E-03  0.180E-01    1.82       1.0  T
   5    -22.4563071 -0.117953E-03  0.548E-02    1.84       1.0  T
   6    -22.4563162 -0.914253E-05  0.345E-02    1.84       1.0  T
   7    -22.4563312 -0.149770E-04  0.112E-02    1.84       2.4  T
   8    -22.4563314 -0.180653E-06  0.409E-03    1.84       6.5  T
   9    -22.4563315 -0.108140E-06  0.164E-03    1.84      16.3  T
  10    -22.4563315 -0.758035E-08  0.581E-04    1.84      46.0  T
  11    -22.4563315 -0.184048E-08  0.299E-04    1.84      89.5  T
     SCC iter.                  ...        0 min,  0.006 sec
     gradient                   ...        0 min,  0.001 sec
 * total energy  :   -22.0756015 Eh     change       -0.3781574E+00 Eh
   gradient norm :     1.6208835 Eh/α   predicted    -0.8689981E+00 ( 129.80%)
   displ. norm   :     0.2279790 α      lambda       -0.2732873E+00
   maximum displ.:     0.1595657 α      in ANC's #35, #1, #2, ...

........................................................................
.............................. CYCLE    3 ..............................
........................................................................

 iter      E             dE          RMSdq      gap      omega  full diag
   1    -22.4594917 -0.224595E+02  0.633E-01    2.40       0.0  T
   2    -22.4639332 -0.444151E-02  0.485E-01    1.93       1.0  T
   3    -22.4663922 -0.245892E-02  0.187E-01    2.06       1.0  T
   4    -22.4663500  0.421507E-04  0.879E-02    2.04       1.0  T
   5    -22.4664123 -0.622854E-04  0.279E-02    2.05       1.0  T
   6    -22.4664163 -0.396730E-05  0.173E-02    2.06       1.5  T
   7    -22.4664190 -0.277418E-05  0.536E-03    2.06       5.0  T
   8    -22.4664192 -0.118149E-06  0.263E-03    2.06      10.1  T
   9    -22.4664192 -0.302169E-07  0.932E-04    2.06      28.7  T
  10    -22.4664192 -0.221215E-08  0.399E-04    2.06      67.0  T
     SCC iter.                  ...        0 min,  0.005 sec
     gradient                   ...        0 min,  0.001 sec
 * total energy  :   -22.2034475 Eh     change       -0.1278459E+00 Eh
   gradient norm :     0.1929651 Eh/α   predicted    -0.1437456E+00 (  12.44%)
   displ. norm   :     0.3200931 α      lambda       -0.1258086E-01
   maximum displ.:     0.3027437 α      in ANC's #1, #36, #22, ...

........................................................................
.............................. CYCLE    4 ..............................
........................................................................

 iter      E             dE          RMSdq      gap      omega  full diag
   1    -22.4610825 -0.224611E+02  0.418E-01    1.85       0.0  T
   2    -22.4611298 -0.472216E-04  0.258E-01    1.89       1.0  T
   3    -22.4607726  0.357196E-03  0.189E-01    1.86       1.0  T
   4    -22.4612301 -0.457575E-03  0.229E-02    1.88       1.2  T
   5    -22.4612334 -0.323234E-05  0.121E-02    1.88       2.2  T
   6    -22.4612344 -0.103021E-05  0.534E-03    1.88       5.0  T
   7    -22.4612345 -0.113960E-06  0.225E-03    1.88      11.9  T
   8    -22.4612345 -0.144505E-07  0.757E-04    1.88      35.3  T
   9    -22.4612345 -0.300304E-08  0.231E-04    1.88     115.9  T
     SCC iter.                  ...        0 min,  0.005 sec
     gradient                   ...        0 min,  0.001 sec
 * total energy  :   -22.2072216 Eh     change       -0.3774134E-02 Eh
   gradient norm :     0.1498414 Eh/α   predicted    -0.6934945E-02 (  83.75%)
   displ. norm   :     0.4349153 α      lambda       -0.9279303E-02
   maximum displ.:     0.4253100 α      in ANC's #1, #2, #9, ...

........................................................................
.............................. CYCLE    5 ..............................
........................................................................

 iter      E             dE          RMSdq      gap      omega  full diag
   1    -22.4689443 -0.224689E+02  0.445E-01    2.02       0.0  T
   2    -22.4690205 -0.761776E-04  0.284E-01    2.07       1.0  T
   3    -22.4688068  0.213728E-03  0.151E-01    2.01       1.0  T
   4    -22.4690826 -0.275851E-03  0.194E-02    2.05       1.4  T
   5    -22.4690850 -0.234757E-05  0.984E-03    2.05       2.7  T
   6    -22.4690850 -0.324134E-07  0.575E-03    2.05       4.7  T
   7    -22.4690854 -0.351783E-06  0.136E-03    2.05      19.7  T
   8    -22.4690854 -0.108992E-07  0.550E-04    2.05      48.6  T
   9    -22.4690854 -0.826738E-09  0.162E-04    2.05     165.1  T
     SCC iter.                  ...        0 min,  0.005 sec
     gradient                   ...        0 min,  0.001 sec
 * total energy  :   -22.2105963 Eh     change       -0.3374695E-02 Eh
   gradient norm :     0.0613071 Eh/α   predicted    -0.5517286E-02 (  63.49%)
   displ. norm   :     0.0956285 α      lambda       -0.2120942E-02
   maximum displ.:     0.0673689 α      in ANC's #1, #6, #9, ...

........................................................................
.............................. CYCLE    6 ..............................
........................................................................

 iter      E             dE          RMSdq      gap      omega  full diag
   1    -22.4690323 -0.224690E+02  0.131E-01    2.10       0.0  T
   2    -22.4690815 -0.492183E-04  0.916E-02    2.05       1.0  T
   3    -22.4691088 -0.272713E-04  0.535E-02    2.08       1.0  T
   4    -22.4691155 -0.672736E-05  0.102E-02    2.07       2.6  T
   5    -22.4691164 -0.881413E-06  0.467E-03    2.07       5.7  T
   6    -22.4691166 -0.169912E-06  0.253E-03    2.07      10.6  T
   7    -22.4691166 -0.450067E-07  0.992E-04    2.07      26.9  T
   8    -22.4691166 -0.526648E-08  0.302E-04    2.07      88.6  T
     SCC iter.                  ...        0 min,  0.004 sec
     gradient                   ...        0 min,  0.001 sec
 * total energy  :   -22.2114787 Eh     change       -0.8824360E-03 Eh
   gradient norm :     0.0474574 Eh/α   predicted    -0.1070167E-02 (  21.27%)
   displ. norm   :     0.0972816 α      lambda       -0.8867540E-03
   maximum displ.:     0.0593239 α      in ANC's #1, #6, #9, ...

........................................................................
.............................. CYCLE    7 ..............................
........................................................................

 iter      E             dE          RMSdq      gap      omega  full diag
   1    -22.4682216 -0.224682E+02  0.105E-01    2.07       0.0  T
   2    -22.4682294 -0.774896E-05  0.636E-02    2.09       1.0  T
   3    -22.4682182  0.111773E-04  0.368E-02    2.08       1.0  T
   4    -22.4682341 -0.158734E-04  0.638E-03    2.09       4.2  T
   5    -22.4682345 -0.419978E-06  0.320E-03    2.09       8.3  T
   6    -22.4682346 -0.798292E-07  0.153E-03    2.09      17.5  T
   7    -22.4682346 -0.621233E-08  0.577E-04    2.09      46.4  T
   8    -22.4682346 -0.124011E-08  0.206E-04    2.09     129.9  T
     SCC iter.                  ...        0 min,  0.004 sec
     gradient                   ...        0 min,  0.001 sec
 * total energy  :   -22.2121537 Eh     change       -0.6749848E-03 Eh
   gradient norm :     0.0185875 Eh/α   predicted    -0.4475733E-03 ( -33.69%)
   displ. norm   :     0.1584236 α      lambda       -0.9085843E-03
   maximum displ.:     0.0877311 α      in ANC's #1, #6, #9, ...

........................................................................
.............................. CYCLE    8 ..............................
........................................................................

 iter      E             dE          RMSdq      gap      omega  full diag
   1    -22.4666915 -0.224667E+02  0.169E-01    2.10       0.0  T
   2    -22.4667084 -0.169323E-04  0.102E-01    2.13       1.0  T
   3    -22.4666820  0.264944E-04  0.580E-02    2.10       1.0  T
   4    -22.4667205 -0.385012E-04  0.693E-03    2.12       3.9  T
   5    -22.4667208 -0.335727E-06  0.383E-03    2.12       7.0  T
   6    -22.4667209 -0.830212E-07  0.221E-03    2.12      12.1  T
   7    -22.4667209 -0.218300E-07  0.794E-04    2.12      33.7  T
   8    -22.4667209 -0.387286E-08  0.240E-04    2.12     111.2  T
     SCC iter.                  ...        0 min,  0.004 sec
     gradient                   ...        0 min,  0.001 sec
 * total energy  :   -22.2126891 Eh     change       -0.5353659E-03 Eh
   gradient norm :     0.0305143 Eh/α   predicted    -0.4656958E-03 ( -13.01%)
   displ. norm   :     0.0772334 α      lambda       -0.3638211E-03
   maximum displ.:     0.0431129 α      in ANC's #6, #4, #2, ...

........................................................................
.............................. CYCLE    9 ..............................
........................................................................

 iter      E             dE          RMSdq      gap      omega  full diag
   1    -22.4671376 -0.224671E+02  0.804E-02    2.14       0.0  T
   2    -22.4671382 -0.591207E-06  0.476E-02    2.14       1.0  T
   3    -22.4671354  0.274336E-05  0.133E-02    2.14       2.0  T
   4    -22.4671384 -0.298732E-05  0.288E-03    2.14       9.3  T
   5    -22.4671385 -0.106826E-06  0.870E-04    2.14      30.7  T
   6    -22.4671385 -0.259225E-08  0.570E-04    2.14      46.9  T
     SCC iter.                  ...        0 min,  0.003 sec
     gradient                   ...        0 min,  0.001 sec
 * total energy  :   -22.2129445 Eh     change       -0.2554670E-03 Eh
   gradient norm :     0.0158702 Eh/α   predicted    -0.1829943E-03 ( -28.37%)
   displ. norm   :     0.0826351 α      lambda       -0.2669256E-03
   maximum displ.:     0.0471322 α      in ANC's #6, #2, #4, ...

........................................................................
.............................. CYCLE   10 ..............................
........................................................................

 iter      E             dE          RMSdq      gap      omega  full diag
   1    -22.4676124 -0.224676E+02  0.753E-02    2.16       0.0  T
   2    -22.4676137 -0.133454E-05  0.440E-02    2.17       1.0  T
   3    -22.4676092  0.457637E-05  0.228E-02    2.16       1.2  T
   4    -22.4676150 -0.584157E-05  0.159E-03    2.16      16.8  T
   5    -22.4676150 -0.236825E-07  0.912E-04    2.16      29.3  T
   6    -22.4676150 -0.299374E-08  0.448E-04    2.16      59.7  T
     SCC iter.                  ...        0 min,  0.003 sec
     gradient                   ...        0 min,  0.001 sec
 * total energy  :   -22.2131260 Eh     change       -0.1814928E-03 Eh
   gradient norm :     0.0065244 Eh/α   predicted    -0.1343720E-03 ( -25.96%)
   displ. norm   :     0.0665010 α      lambda       -0.1723732E-03
   maximum displ.:     0.0346141 α      in ANC's #2, #6, #4, ...

........................................................................
.............................. CYCLE   11 ..............................
........................................................................

 iter      E             dE          RMSdq      gap      omega  full diag
   1    -22.4683982 -0.224684E+02  0.526E-02    2.18       0.0  T
   2    -22.4683987 -0.498310E-06  0.311E-02    2.18       1.0  T
   3    -22.4683965  0.215711E-05  0.147E-02    2.18       1.8  T
   4    -22.4683991 -0.262343E-05  0.140E-03    2.18      19.1  T
   5    -22.4683992 -0.196381E-07  0.683E-04    2.18      39.2  T
   6    -22.4683992 -0.238089E-08  0.347E-04    2.18      76.9  T
     SCC iter.                  ...        0 min,  0.003 sec
     gradient                   ...        0 min,  0.001 sec
 * total energy  :   -22.2132566 Eh     change       -0.1305546E-03 Eh
   gradient norm :     0.0073147 Eh/α   predicted    -0.8656562E-04 ( -33.69%)
   displ. norm   :     0.1004214 α      lambda       -0.2108362E-03
   maximum displ.:     0.0533761 α      in ANC's #2, #6, #4, ...

........................................................................
.............................. CYCLE   12 ..............................
........................................................................

 iter      E             dE          RMSdq      gap      omega  full diag
   1    -22.4688257 -0.224688E+02  0.721E-02    2.20       0.0  T
   2    -22.4688269 -0.115260E-05  0.433E-02    2.20       1.0  T
   3    -22.4688225  0.436886E-05  0.199E-02    2.19       1.3  T
   4    -22.4688279 -0.539074E-05  0.172E-03    2.20      15.5  T
   5    -22.4688279 -0.947365E-08  0.987E-04    2.20      27.1  T
   6    -22.4688279 -0.154963E-08  0.239E-04    2.20     111.9  T
     SCC iter.                  ...        0 min,  0.003 sec
     gradient                   ...        0 min,  0.001 sec
 * total energy  :   -22.2134056 Eh     change       -0.1490127E-03 Eh
   gradient norm :     0.0082826 Eh/α   predicted    -0.1064814E-03 ( -28.54%)
   displ. norm   :     0.0868506 α      lambda       -0.1436899E-03
   maximum displ.:     0.0486363 α      in ANC's #2, #5, #4, ...

........................................................................
.............................. CYCLE   13 ..............................
........................................................................

 iter      E             dE          RMSdq      gap      omega  full diag
   1    -22.4688103 -0.224688E+02  0.565E-02    2.21       0.0  T
   2    -22.4688108 -0.493951E-06  0.335E-02    2.22       1.0  T
   3    -22.4688069  0.389111E-05  0.167E-02    2.21       1.6  T
   4    -22.4688114 -0.445974E-05  0.230E-03    2.22      11.6  T
   5    -22.4688114 -0.573366E-07  0.105E-03    2.22      25.4  T
   6    -22.4688114 -0.232443E-08  0.428E-04    2.22      62.5  T
   7    -22.4688114 -0.943853E-09  0.148E-04    2.22     180.7  T
     SCC iter.                  ...        0 min,  0.004 sec
     gradient                   ...        0 min,  0.001 sec
 * total energy  :   -22.2135062 Eh     change       -0.1006248E-03 Eh
   gradient norm :     0.0066491 Eh/α   predicted    -0.7238770E-04 ( -28.06%)
   displ. norm   :     0.0663269 α      lambda       -0.9204102E-04
   maximum displ.:     0.0394916 α      in ANC's #2, #4, #5, ...

........................................................................
.............................. CYCLE   14 ..............................
........................................................................

 iter      E             dE          RMSdq      gap      omega  full diag
   1    -22.4684849 -0.224685E+02  0.437E-02    2.23       0.0  T
   2    -22.4684853 -0.394177E-06  0.260E-02    2.23       1.0  T
   3    -22.4684817  0.368702E-05  0.182E-02    2.23       1.5  T
   4    -22.4684863 -0.461365E-05  0.221E-03    2.23      12.1  T
   5    -22.4684863 -0.614643E-07  0.744E-04    2.23      35.9  T
   6    -22.4684863 -0.230468E-09  0.391E-04    2.23      68.3  T
     SCC iter.                  ...        0 min,  0.003 sec
     gradient                   ...        0 min,  0.001 sec
 * total energy  :   -22.2135705 Eh     change       -0.6424083E-04 Eh
   gradient norm :     0.0040204 Eh/α   predicted    -0.4622421E-04 ( -28.05%)
   displ. norm   :     0.0419277 α      lambda       -0.5787922E-04
   maximum displ.:     0.0260817 α      in ANC's #2, #9, #4, ...

........................................................................
.............................. CYCLE   15 ..............................
........................................................................

 iter      E             dE          RMSdq      gap      omega  full diag
   1    -22.4682653 -0.224683E+02  0.346E-02    2.24       0.0  T
   2    -22.4682655 -0.231850E-06  0.211E-02    2.24       1.3  T
   3    -22.4682633  0.219044E-05  0.154E-02    2.24       1.7  T
   4    -22.4682664 -0.306642E-05  0.178E-03    2.24      15.0  T
   5    -22.4682664 -0.369137E-07  0.485E-04    2.24      55.1  T
   6    -22.4682664 -0.112969E-09  0.279E-04    2.24      95.9  T
     SCC iter.                  ...        0 min,  0.003 sec
     gradient                   ...        0 min,  0.001 sec
 * total energy  :   -22.2136097 Eh     change       -0.3924107E-04 Eh
   gradient norm :     0.0032043 Eh/α   predicted    -0.2898926E-04 ( -26.13%)
   displ. norm   :     0.0243999 α      lambda       -0.2906369E-04
   maximum displ.:     0.0155344 α      in ANC's #2, #4, #7, ...

........................................................................
.............................. CYCLE   16 ..............................
........................................................................

 iter      E             dE          RMSdq      gap      omega  full diag
   1    -22.4681379 -0.224681E+02  0.226E-02    2.24       0.0  T
   2    -22.4681382 -0.243520E-06  0.144E-02    2.25       1.9  T
   3    -22.4681376  0.580210E-06  0.964E-03    2.24       2.8  T
   4    -22.4681386 -0.106917E-05  0.187E-03    2.24      14.3  T
   5    -22.4681387 -0.469811E-07  0.379E-04    2.24      70.5  T
   6    -22.4681387 -0.227558E-09  0.266E-04    2.24     100.6  T
     SCC iter.                  ...        0 min,  0.003 sec
     gradient                   ...        0 min,  0.001 sec
 * total energy  :   -22.2136298 Eh     change       -0.2012055E-04 Eh
   gradient norm :     0.0021621 Eh/α   predicted    -0.1454061E-04 ( -27.73%)
   displ. norm   :     0.0232203 α      lambda       -0.2055037E-04
   maximum displ.:     0.0133598 α      in ANC's #1, #2, #7, ...

........................................................................
.............................. CYCLE   17 ..............................
........................................................................

 iter      E             dE          RMSdq      gap      omega  full diag
   1    -22.4682043 -0.224682E+02  0.203E-02    2.25       0.0  T
   2    -22.4682045 -0.117221E-06  0.130E-02    2.25       2.1  T
   3    -22.4682036  0.817244E-06  0.864E-03    2.25       3.1  T
   4    -22.4682047 -0.105357E-05  0.130E-03    2.25      20.5  T
   5    -22.4682047 -0.156944E-07  0.491E-04    2.25      54.4  T
   6    -22.4682047 -0.502116E-09  0.288E-04    2.25      92.7  T
     SCC iter.                  ...        0 min,  0.003 sec
     gradient                   ...        0 min,  0.001 sec
 * total energy  :   -22.2136451 Eh     change       -0.1523530E-04 Eh
   gradient norm :     0.0029626 Eh/α   predicted    -0.1028121E-04 ( -32.52%)
   displ. norm   :     0.0378459 α      lambda       -0.2623563E-04
   maximum displ.:     0.0219298 α      in ANC's #2, #7, #1, ...

........................................................................
.............................. CYCLE   18 ..............................
........................................................................

 iter      E             dE          RMSdq      gap      omega  full diag
   1    -22.4681892 -0.224682E+02  0.246E-02    2.26       0.0  T
   2    -22.4681896 -0.396078E-06  0.163E-02    2.26       1.6  T
   3    -22.4681892  0.433620E-06  0.104E-02    2.26       2.6  T
   4    -22.4681902 -0.102496E-05  0.230E-03    2.26      11.6  T
   5    -22.4681903 -0.696703E-07  0.695E-04    2.26      38.4  T
   6    -22.4681903 -0.958376E-09  0.362E-04    2.26      73.8  T
     SCC iter.                  ...        0 min,  0.003 sec
     gradient                   ...        0 min,  0.001 sec
 * total energy  :   -22.2136641 Eh     change       -0.1905065E-04 Eh
   gradient norm :     0.0025276 Eh/α   predicted    -0.1313621E-04 ( -31.05%)
   displ. norm   :     0.0484088 α      lambda       -0.2806211E-04
   maximum displ.:     0.0257080 α      in ANC's #1, #2, #7, ...

........................................................................
.............................. CYCLE   19 ..............................
........................................................................

 iter      E             dE          RMSdq      gap      omega  full diag
   1    -22.4682229 -0.224682E+02  0.333E-02    2.26       0.0  T
   2    -22.4682231 -0.213960E-06  0.212E-02    2.27       1.3  T
   3    -22.4682208  0.228052E-05  0.133E-02    2.26       2.0  T
   4    -22.4682235 -0.269025E-05  0.178E-03    2.26      15.0  T
   5    -22.4682235 -0.233638E-07  0.877E-04    2.26      30.5  T
   6    -22.4682235 -0.194863E-08  0.382E-04    2.26      69.9  T
     SCC iter.                  ...        0 min,  0.003 sec
     gradient                   ...        0 min,  0.001 sec
 * total energy  :   -22.2136837 Eh     change       -0.1955974E-04 Eh
   gradient norm :     0.0038788 Eh/α   predicted    -0.1406332E-04 ( -28.10%)
   displ. norm   :     0.0398485 α      lambda       -0.1935956E-04
   maximum displ.:     0.0209531 α      in ANC's #2, #1, #7, ...

........................................................................
.............................. CYCLE   20 ..............................
........................................................................

 iter      E             dE          RMSdq      gap      omega  full diag
   1    -22.4681916 -0.224682E+02  0.270E-02    2.27       0.0  T
   2    -22.4681917 -0.117706E-06  0.170E-02    2.27       1.6  T
   3    -22.4681904  0.128765E-05  0.983E-03    2.27       2.7  T
   4    -22.4681919 -0.148976E-05  0.133E-03    2.27      20.1  T
   5    -22.4681919 -0.133993E-07  0.713E-04    2.27      37.5  T
   6    -22.4681919 -0.148219E-08  0.195E-04    2.27     137.0  T
     SCC iter.                  ...        0 min,  0.003 sec
     gradient                   ...        0 min,  0.001 sec
 * total energy  :   -22.2136970 Eh     change       -0.1332314E-04 Eh
   gradient norm :     0.0025185 Eh/α   predicted    -0.9694956E-05 ( -27.23%)
   displ. norm   :     0.0238252 α      lambda       -0.1245927E-04
   maximum displ.:     0.0145797 α      in ANC's #1, #3, #7, ...
 * RMSD in coord.:     0.2773793 α      energy gain  -0.5162529E+00 Eh

generating ANC from model Hessian ...
Using Lindh-Hessian (1995)
 Shifting diagonal of input Hessian by    1.9082064369756922E-002
 Lowest  eigenvalues of input Hessian
    0.010000    0.000000    0.000000    0.000000    0.000000    0.000000
    0.000000    0.021983    0.024701    0.036823    0.041609    0.051248
    0.065183    0.076644    0.077158    0.083443    0.094940    0.100471
 Highest eigenvalues
    1.368096    1.560782    1.740066    1.820975    6.570394   10.523349


........................................................................
.............................. CYCLE   21 ..............................
........................................................................

 iter      E             dE          RMSdq      gap      omega  full diag
   1    -22.4682163 -0.224682E+02  0.207E-02    2.27       0.0  T
   2    -22.4682163 -0.749491E-07  0.128E-02    2.27       2.1  T
   3    -22.4682160  0.294809E-06  0.504E-03    2.27       5.3  T
   4    -22.4682164 -0.343639E-06  0.908E-04    2.27      29.4  T
   5    -22.4682164 -0.697755E-08  0.496E-04    2.27      53.9  T
     SCC iter.                  ...        0 min,  0.003 sec
     gradient                   ...        0 min,  0.001 sec
 * total energy  :   -22.2137059 Eh     change       -0.8859428E-05 Eh
   gradient norm :     0.0023465 Eh/α   predicted     0.0000000E+00 (-100.00%)
   displ. norm   :     0.0243108 α      lambda       -0.1978088E-04
   maximum displ.:     0.0182497 α      in ANC's #3, #4, #1, ...

........................................................................
.............................. CYCLE   22 ..............................
........................................................................

 iter      E             dE          RMSdq      gap      omega  full diag
   1    -22.4681316 -0.224681E+02  0.210E-02    2.27       0.0  T
   2    -22.4681317 -0.709324E-07  0.133E-02    2.27       2.0  T
   3    -22.4681310  0.698363E-06  0.718E-03    2.27       3.7  T
   4    -22.4681318 -0.790873E-06  0.961E-04    2.27      27.8  T
   5    -22.4681318 -0.572624E-08  0.512E-04    2.27      52.2  T
     SCC iter.                  ...        0 min,  0.003 sec
     gradient                   ...        0 min,  0.001 sec
 * total energy  :   -22.2137210 Eh     change       -0.1515437E-04 Eh
   gradient norm :     0.0017984 Eh/α   predicted    -0.9894244E-05 ( -34.71%)
   displ. norm   :     0.0847846 α      lambda       -0.2973758E-04
   maximum displ.:     0.0744601 α      in ANC's #3, #4, #5, ...

........................................................................
.............................. CYCLE   23 ..............................
........................................................................

 iter      E             dE          RMSdq      gap      omega  full diag
   1    -22.4678949 -0.224679E+02  0.571E-02    2.27       0.0  T
   2    -22.4678952 -0.333068E-06  0.354E-02    2.27       1.0  T
   3    -22.4678901  0.511676E-05  0.194E-02    2.27       1.4  T
   4    -22.4678959 -0.579430E-05  0.213E-03    2.27      12.6  T
   5    -22.4678959 -0.112526E-07  0.139E-03    2.27      19.2  T
   6    -22.4678959 -0.975386E-08  0.482E-04    2.27      55.4  T
   7    -22.4678959 -0.901672E-09  0.140E-04    2.27     191.5  T
     SCC iter.                  ...        0 min,  0.004 sec
     gradient                   ...        0 min,  0.001 sec
 * total energy  :   -22.2137388 Eh     change       -0.1778155E-04 Eh
   gradient norm :     0.0055790 Eh/α   predicted    -0.1491471E-04 ( -16.12%)
   displ. norm   :     0.0227959 α      lambda       -0.1522842E-04
   maximum displ.:     0.0178212 α      in ANC's #3, #1, #5, ...

........................................................................
.............................. CYCLE   24 ..............................
........................................................................

 iter      E             dE          RMSdq      gap      omega  full diag
   1    -22.4680421 -0.224680E+02  0.134E-02    2.27       0.0  T
   2    -22.4680424 -0.281233E-06  0.857E-03    2.27       3.1  T
   3    -22.4680425 -0.840581E-07  0.528E-03    2.27       5.1  T
   4    -22.4680427 -0.147986E-06  0.600E-04    2.27      44.5  T
   5    -22.4680427 -0.266770E-08  0.268E-04    2.27      99.8  T
     SCC iter.                  ...        0 min,  0.003 sec
     gradient                   ...        0 min,  0.001 sec
 * total energy  :   -22.2137496 Eh     change       -0.1080416E-04 Eh
   gradient norm :     0.0027208 Eh/α   predicted    -0.7618335E-05 ( -29.49%)
   displ. norm   :     0.0421433 α      lambda       -0.1806678E-04
   maximum displ.:     0.0355393 α      in ANC's #3, #1, #5, ...

........................................................................
.............................. CYCLE   25 ..............................
........................................................................

 iter      E             dE          RMSdq      gap      omega  full diag
   1    -22.4682687 -0.224683E+02  0.230E-02    2.28       0.0  T
   2    -22.4682690 -0.336342E-06  0.141E-02    2.28       1.9  T
   3    -22.4682687  0.335510E-06  0.844E-03    2.28       3.2  T
   4    -22.4682693 -0.644457E-06  0.658E-04    2.28      40.6  T
   5    -22.4682693 -0.112174E-08  0.422E-04    2.28      63.3  T
     SCC iter.                  ...        0 min,  0.003 sec
     gradient                   ...        0 min,  0.001 sec
 * total energy  :   -22.2137616 Eh     change       -0.1198982E-04 Eh
   gradient norm :     0.0020480 Eh/α   predicted    -0.9049346E-05 ( -24.52%)
   displ. norm   :     0.0395116 α      lambda       -0.8804000E-05
   maximum displ.:     0.0384587 α      in ANC's #3, #6, #5, ...

........................................................................
.............................. CYCLE   26 ..............................
........................................................................

 iter      E             dE          RMSdq      gap      omega  full diag
   1    -22.4681601 -0.224682E+02  0.219E-02    2.28       0.0  T
   2    -22.4681601 -0.643182E-07  0.135E-02    2.28       2.0  T
   3    -22.4681595  0.655524E-06  0.682E-03    2.28       3.9  T
   4    -22.4681602 -0.749966E-06  0.970E-04    2.28      27.6  T
   5    -22.4681602 -0.537958E-08  0.581E-04    2.28      46.0  T
     SCC iter.                  ...        0 min,  0.003 sec
     gradient                   ...        0 min,  0.001 sec
 * total energy  :   -22.2137677 Eh     change       -0.6070066E-05 Eh
   gradient norm :     0.0020388 Eh/α   predicted    -0.4409311E-05 ( -27.36%)
   displ. norm   :     0.0260106 α      lambda       -0.4519113E-05
   maximum displ.:     0.0249943 α      in ANC's #3, #1, #7, ...

........................................................................
.............................. CYCLE   27 ..............................
........................................................................

 iter      E             dE          RMSdq      gap      omega  full diag
   1    -22.4681722 -0.224682E+02  0.145E-02    2.29       0.0  T
   2    -22.4681723 -0.212683E-07  0.884E-03    2.29       3.0  T
   3    -22.4681719  0.343980E-06  0.490E-03    2.29       5.5  T
   4    -22.4681723 -0.392092E-06  0.566E-04    2.29      47.2  T
   5    -22.4681723 -0.164059E-08  0.346E-04    2.29      77.2  T
     SCC iter.                  ...        0 min,  0.003 sec
     gradient                   ...        0 min,  0.001 sec
 * total energy  :   -22.2137709 Eh     change       -0.3282500E-05 Eh
   gradient norm :     0.0010972 Eh/α   predicted    -0.2260282E-05 ( -31.14%)
   displ. norm   :     0.0393605 α      lambda       -0.3306560E-05
   maximum displ.:     0.0385027 α      in ANC's #3, #7, #29, ...

........................................................................
.............................. CYCLE   28 ..............................
........................................................................

 iter      E             dE          RMSdq      gap      omega  full diag
   1    -22.4681403 -0.224681E+02  0.234E-02    2.29       0.0  T
   2    -22.4681404 -0.430029E-07  0.144E-02    2.29       1.9  T
   3    -22.4681395  0.861970E-06  0.776E-03    2.29       3.4  T
   4    -22.4681405 -0.970948E-06  0.806E-04    2.29      33.2  T
   5    -22.4681405  0.330434E-09  0.411E-04    2.29      65.1  T
     SCC iter.                  ...        0 min,  0.003 sec
     gradient                   ...        0 min,  0.001 sec
 * total energy  :   -22.2137737 Eh     change       -0.2798401E-05 Eh
   gradient norm :     0.0012451 Eh/α   predicted    -0.1654092E-05 ( -40.89%)
   displ. norm   :     0.0091349 α      lambda       -0.1413759E-05
   maximum displ.:     0.0064333 α      in ANC's #3, #5, #4, ...

........................................................................
.............................. CYCLE   29 ..............................
........................................................................

 iter      E             dE          RMSdq      gap      omega  full diag
   1    -22.4682919 -0.224683E+02  0.701E-03    2.28       0.0  T
   2    -22.4682919 -0.157496E-07  0.449E-03    2.28       6.0  T
   3    -22.4682919  0.580766E-07  0.224E-03    2.28      11.9  T
   4    -22.4682919 -0.747197E-07  0.341E-04    2.28      78.4  T
   5    -22.4682919 -0.940499E-09  0.202E-04    2.28     132.0  T
     SCC iter.                  ...        0 min,  0.003 sec
     gradient                   ...        0 min,  0.001 sec
 * total energy  :   -22.2137748 Eh     change       -0.1083295E-05 Eh
   gradient norm :     0.0007483 Eh/α   predicted    -0.7054549E-06 ( -34.88%)
   displ. norm   :     0.0189621 α      lambda       -0.1089332E-05
   maximum displ.:     0.0171999 α      in ANC's #3, #1, #5, ...

   *** GEOMETRY OPTIMIZATION CONVERGED AFTER 29 ITERATIONS ***

------------------------------------------------------------------------
 total energy gain   :        -0.5163307 Eh     -324.0024 kcal/mol
 total RMSD          :         0.2944857 a0        0.1558 Å
 total power (kW/mol):       -46.7457282 (step)-8366.1608 (real)
------------------------------------------------------------------------

 ANCopt (total)                0 d,  0 h,  0 min,  0.162 sec
 optimizer setup                ...        0 min,  0.000 sec (  0.077%)
 model hessian                  ...        0 min,  0.006 sec (  3.563%)
 ANC generation                 ...        0 min,  0.001 sec (  0.423%)
 coordinate transformation      ...        0 min,  0.000 sec (  0.098%)
 single point calculation       ...        0 min,  0.144 sec ( 88.712%)
 optimization log               ...        0 min,  0.003 sec (  1.727%)
 hessian update                 ...        0 min,  0.000 sec (  0.195%)
 rational function              ...        0 min,  0.004 sec (  2.246%)

================
 final structure:
================
14
 xtb: 6.6.1 (8d0f1dd)
O           -2.20182263865242       -0.88068381386872        1.11401048231052
O           -0.86615185681304        0.18465268363948        0.95040452134157
C           -0.66480342866326        0.53623643281658       -0.36211852228527
C            0.46798454670101        1.36326194547445        0.16103949863006
C            1.56164309919495        0.50680615159400        0.26894493441842
C            1.26419237624502       -0.69233340647654       -0.31706903961444
C           -0.02516816434194       -0.66113609269520       -1.05181465899484
H           -2.26069013232710       -0.84034274406779        2.06941839479939
H           -1.50959384061031        1.02513404352431       -0.84784241647267
H            0.34683421748324        2.34157463893051        0.58119588796886
H            2.47966311977143        0.74169373640707        0.77711692209147
H            1.91591230605450       -1.54935856446617       -0.32971985553755
H            0.12455266493944       -0.52449538011686       -2.12606279049781
H           -0.63255226898147       -1.55090963069516       -0.88749335815772

 Bond Distances (Angstroems)
 ---------------------------
O1-H8=0.9581         O2-C3=1.3736         C3-O2=1.3736         C3-C4=1.4970         C3-C7=1.5227         C3-H9=1.0902         
C4-C3=1.4970         C4-C5=1.3933         C4-H10=1.0716        C5-C4=1.3933         C5-C6=1.3674         C5-H11=1.0753        
C6-C5=1.3674         C6-C7=1.4843         C6-H12=1.0768        C7-C3=1.5227         C7-C6=1.4843         C7-H13=1.0932        
C7-H14=1.0898        H8-O1=0.9581         H9-C3=1.0902         H10-C4=1.0716        H11-C5=1.0753        H12-C6=1.0768        
H13-C7=1.0932        H14-C7=1.0898        
 C  H  Rav=1.0828 sigma=0.0085  Rmin=1.0716  Rmax=1.0932     6
 C  C  Rav=1.4529 sigma=0.0611  Rmin=1.3674  Rmax=1.5227     5
 O  H  Rav=0.9581 sigma=0.0000  Rmin=0.9581  Rmax=0.9581     1
 O  C  Rav=1.3736 sigma=0.0000  Rmin=1.3736  Rmax=1.3736     1

 selected bond angles (degree)
 --------------------
C4-C3-O2= 85.32                C7-C3-O2=107.04                C7-C3-C4=105.95                H9-C3-O2=115.27                
H9-C3-C4=119.62                H9-C3-C7=118.45                C5-C4-C3=106.35                H10-C4-C3=123.77               
H10-C4-C5=128.28               C6-C5-C4=109.58                H11-C5-C4=124.92               H11-C5-C6=125.44               
C7-C6-C5=112.50                H12-C6-C5=124.85               H12-C6-C7=122.46               C6-C7-C3= 99.05                
H13-C7-C3=113.85               H13-C7-C6=111.72               H14-C7-C3=109.85               H14-C7-C6=113.10               
H14-C7-H13=109.06              

 selected dihedral angles (degree)
 ---------------------------------
C5-C4-C3-O2= 84.40            C5-C4-C3-C7=337.99            C5-C4-C3-H9=200.90            H10-C4-C3-O2=277.78           
H10-C4-C3-C7=171.37           H10-C4-C3-H9= 34.28           C6-C5-C4-C3=  8.91            C6-C5-C4-H10=174.72           
H11-C5-C4-C3=191.56           H11-C5-C4-H10=357.38          C7-C6-C5-C4=  8.31            C7-C6-C5-H11=185.64           
H12-C6-C5-C4=183.27           H12-C6-C5-H11=  0.60          C6-C7-C3-O2=294.87            C6-C7-C3-C4= 24.81            
C6-C7-C3-H9=162.50            H13-C7-C3-O2=176.18           H13-C7-C3-C4=266.11           H13-C7-C3-H9= 43.81           
H14-C7-C3-O2= 53.55           H14-C7-C3-C4=143.48           H14-C7-C3-H9=281.18           C3-C7-C6-C5=339.12            
C3-C7-C6-H12=164.02           H13-C7-C6-C5= 99.40           H13-C7-C6-H12=284.30          H14-C7-C6-C5=222.90           
H14-C7-C6-H12= 47.80          
           -------------------------------------------------
          |                Final Singlepoint                |
           -------------------------------------------------

          ...................................................
          :                      SETUP                      :
          :.................................................:
          :  # basis functions                  35          :
          :  # atomic orbitals                  35          :
          :  # shells                           21          :
          :  # electrons                        39          :
          :  max. iterations                   250          :
          :  Hamiltonian                  GFN2-xTB          :
          :  restarted?                      false          :
          :  GBSA solvation                  false          :
          :  PC potential                    false          :
          :  electronic temp.          300.0000000     K    :
          :  accuracy                    1.0000000          :
          :  -> integral cutoff          0.2500000E+02      :
          :  -> integral neglect         0.1000000E-07      :
          :  -> SCF convergence          0.1000000E-05 Eh   :
          :  -> wf. convergence          0.1000000E-03 e    :
          :  Broyden damping             0.4000000          :
          ...................................................

 iter      E             dE          RMSdq      gap      omega  full diag
   1    -22.4682919 -0.224683E+02  0.508E-05    2.28       0.0  T
   2    -22.4682919 -0.664713E-11  0.317E-05    2.28     842.3  T
   3    -22.4682919 -0.671463E-12  0.223E-05    2.28    1198.8  T

   *** convergence criteria satisfied after 3 iterations ***

         #    Occupation            Energy/Eh            Energy/eV
      -------------------------------------------------------------
         1        2.0000           -0.7010204             -19.0757
       ...           ...                  ...                  ...
        14        2.0000           -0.4777217             -12.9995
        15        2.0000           -0.4700490             -12.7907
        16        2.0000           -0.4576334             -12.4528
        17        2.0000           -0.4424206             -12.0389
        18        2.0000           -0.4400552             -11.9745
        19        2.0000           -0.4033435             -10.9755
        20        1.0000           -0.3462965              -9.4232 (HOMO)
        21                         -0.2623987              -7.1402 (LUMO)
        22                         -0.1853286              -5.0430
        23                          0.0264542               0.7199
        24                          0.0838152               2.2807
        25                          0.1021147               2.7787
       ...                                ...                  ...
        35                          0.6046381              16.4530
      -------------------------------------------------------------
                  HL-Gap            0.0838978 Eh            2.2830 eV
             Fermi-level           -0.3395838 Eh           -9.2405 eV

 SCC (total)                   0 d,  0 h,  0 min,  0.003 sec
 SCC setup                      ...        0 min,  0.000 sec (  2.316%)
 Dispersion                     ...        0 min,  0.000 sec (  1.628%)
 classical contributions        ...        0 min,  0.000 sec (  0.289%)
 integral evaluation            ...        0 min,  0.000 sec (  8.820%)
 iterations                     ...        0 min,  0.002 sec ( 56.481%)
 molecular gradient             ...        0 min,  0.001 sec ( 24.741%)
 printout                       ...        0 min,  0.000 sec (  5.179%)

         :::::::::::::::::::::::::::::::::::::::::::::::::::::
         ::                     SUMMARY                     ::
         :::::::::::::::::::::::::::::::::::::::::::::::::::::
         :: total energy             -22.213774819520 Eh    ::
         :: gradient norm              0.000746315415 Eh/a0 ::
         :: HOMO-LUMO gap              2.282975038745 eV    ::
         ::.................................................::
         :: SCC energy               -22.468291939603 Eh    ::
         :: -> isotropic ES            0.044517641396 Eh    ::
         :: -> anisotropic ES         -0.008051325724 Eh    ::
         :: -> anisotropic XC          0.005724661174 Eh    ::
         :: -> dispersion             -0.008826805871 Eh    ::
         :: repulsion energy           0.254200284736 Eh    ::
         :: add. restraining           0.000296954533 Eh    ::
         :: total charge              -0.000000000000 e     ::
         :::::::::::::::::::::::::::::::::::::::::::::::::::::

           -------------------------------------------------
          |                Property Printout                |
           -------------------------------------------------

    * Orbital Energies and Occupations

         #    Occupation            Energy/Eh            Energy/eV
      -------------------------------------------------------------
         1        2.0000           -0.7010204             -19.0757
       ...           ...                  ...                  ...
         8        2.0000           -0.5607457             -15.2587
         9        2.0000           -0.5468690             -14.8811
        10        2.0000           -0.5329217             -14.5015
        11        2.0000           -0.5128233             -13.9546
        12        2.0000           -0.4991550             -13.5827
        13        2.0000           -0.4829775             -13.1425
        14        2.0000           -0.4777217             -12.9995
        15        2.0000           -0.4700490             -12.7907
        16        2.0000           -0.4576334             -12.4528
        17        2.0000           -0.4424206             -12.0389
        18        2.0000           -0.4400552             -11.9745
        19        2.0000           -0.4033435             -10.9755
        20        1.0000           -0.3462965              -9.4232 (HOMO)
        21                         -0.2623987              -7.1402 (LUMO)
        22                         -0.1853286              -5.0430
        23                          0.0264542               0.7199
        24                          0.0838152               2.2807
        25                          0.1021147               2.7787
        26                          0.1330676               3.6210
        27                          0.1454533               3.9580
        28                          0.1635109               4.4494
        29                          0.1887854               5.1371
        30                          0.2096439               5.7047
        31                          0.2338382               6.3631
       ...                                ...                  ...
        35                          0.6046381              16.4530
      -------------------------------------------------------------
                  HL-Gap            0.0838978 Eh            2.2830 eV
             Fermi-level           -0.3395838 Eh           -9.2405 eV

     #   Z          covCN         q      C6AA      α(0)
     1   8 O        1.207    -0.434    22.146     6.321
     2   8 O        1.485    -0.266    18.562     5.809
     3   6 C        3.839     0.142    18.267     6.080
     4   6 C        3.213    -0.008    27.550     8.541
     5   6 C        2.957    -0.019    28.476     8.753
     6   6 C        3.033    -0.005    28.109     8.696
     7   6 C        3.842    -0.070    21.812     6.644
     8   1 H        0.806     0.292     0.744     1.355
     9   1 H        0.924     0.040     2.454     2.450
    10   1 H        0.926     0.065     2.144     2.290
    11   1 H        0.926     0.056     2.252     2.347
    12   1 H        0.926     0.053     2.278     2.360
    13   1 H        0.924     0.062     2.172     2.305
    14   1 H        0.925     0.092     1.858     2.132

 Mol. C6AA /au·bohr⁶  :       1888.674448
 Mol. C8AA /au·bohr⁸  :      42984.693901
 Mol. α(0) /au        :         66.081180


Wiberg/Mayer (AO) data.
largest (>0.10) Wiberg bond orders for each atom

 ---------------------------------------------------------------------------
     #   Z sym  total        # sym  WBO       # sym  WBO       # sym  WBO
 ---------------------------------------------------------------------------
     1   8 O    1.870 --     8 H    0.912     2 O    0.699     4 C    0.126
     2   8 O    2.017 --     3 C    1.007     1 O    0.699     4 C    0.209
     3   6 C    3.949 --     2 O    1.007     7 C    0.981     9 H    0.958
                             4 C    0.946
     4   6 C    3.812 --     5 C    1.377    10 H    0.972     3 C    0.946
                             2 O    0.209     6 C    0.134     1 O    0.126
     5   6 C    3.989 --     6 C    1.549     4 C    1.377    11 H    0.967
     6   6 C    3.862 --     5 C    1.549     7 C    1.057    12 H    0.972
                             4 C    0.134
     7   6 C    3.995 --     6 C    1.057     3 C    0.981    14 H    0.948
                            13 H    0.937
     8   1 H    0.915 --     1 O    0.912
     9   1 H    0.998 --     3 C    0.958
    10   1 H    0.996 --     4 C    0.972
    11   1 H    0.997 --     5 C    0.967
    12   1 H    0.997 --     6 C    0.972
    13   1 H    0.996 --     7 C    0.937
    14   1 H    0.991 --     7 C    0.948
 ---------------------------------------------------------------------------

Topologies differ in total number of bonds
Writing topology from bond orders to xtbtopo.mol

molecular dipole:
                 x           y           z       tot (Debye)
 q only:        1.031       0.317      -0.564
   full:        0.952       0.374      -0.388       2.781
molecular quadrupole (traceless):
                xx          xy          yy          xz          yz          zz
 q only:       -3.137      -1.556       0.997       0.612       0.526       2.139
  q+dip:       -3.520      -3.028       1.561       0.940       1.190       1.960
   full:       -3.608      -2.096       0.739       0.022       0.538       2.869

           -------------------------------------------------
          |                Geometry Summary                 |
           -------------------------------------------------

      molecular mass/u    :       99.1080746
   center of mass at/Å    :       -0.1749991       0.0116005       0.1678348
  moments of inertia/u·Å² :        0.1004820E+03   0.2207218E+03   0.2524956E+03
rotational constants/cm⁻¹ :        0.1677677E+00   0.7637502E-01   0.6676406E-01

 * 12 selected distances

     #   Z          #   Z                                           value/Å
     2   8 O        3   6 C                                       1.3736337
     3   6 C        4   6 C                                       1.4969551
     4   6 C        5   6 C                                       1.3932873
     5   6 C        6   6 C                                       1.3674156
     3   6 C        7   6 C                                       1.5226672 (max)
     6   6 C        7   6 C                                       1.4843434
     3   6 C        9   1 H                                       1.0902383
     4   6 C       10   1 H                                       1.0715898 (min)
     5   6 C       11   1 H                                       1.0752544
     6   6 C       12   1 H                                       1.0767503
     7   6 C       13   1 H                                       1.0932046
     7   6 C       14   1 H                                       1.0897771

 * 3 distinct bonds (by element types)

   Z      Z             #   av. dist./Å        max./Å        min./Å
   1 H    6 C           6     1.0828024     1.0932046     1.0715898
   6 C    6 C           5     1.4529337     1.5226672     1.3674156
   6 C    8 O           1     1.3736337     1.3736337     1.3736337


optimized geometry written to: xtbopt.xyz


           -------------------------------------------------
          | TOTAL ENERGY              -22.213774819520 Eh   |
          | GRADIENT NORM               0.000746315415 Eh/α |
          | HOMO-LUMO GAP               2.282975038745 eV   |
           -------------------------------------------------

------------------------------------------------------------------------
 * finished run on 2025/05/23 at 12:05:45.076     
------------------------------------------------------------------------
 total:
 * wall-time:     0 d,  0 h,  0 min,  0.183 sec
 *  cpu-time:     0 d,  0 h,  0 min,  2.729 sec
 * ratio c/w:    14.888 speedup
 SCF:
 * wall-time:     0 d,  0 h,  0 min,  0.010 sec
 *  cpu-time:     0 d,  0 h,  0 min,  0.149 sec
 * ratio c/w:    15.218 speedup
 ANC optimizer:
 * wall-time:     0 d,  0 h,  0 min,  0.166 sec
 *  cpu-time:     0 d,  0 h,  0 min,  2.485 sec
 * ratio c/w:    14.939 speedup

