
                                 *****************
                                 * O   R   C   A *
                                 *****************

                                            #,                                       
                                            ###                                      
                                            ####                                     
                                            #####                                    
                                            ######                                   
                                           ########,                                 
                                     ,,################,,,,,                         
                               ,,#################################,,                 
                          ,,##########################################,,             
                       ,#########################################, ''#####,          
                    ,#############################################,,   '####,        
                  ,##################################################,,,,####,       
                ,###########''''           ''''###############################       
              ,#####''   ,,,,##########,,,,          '''####'''          '####       
            ,##' ,,,,###########################,,,                        '##       
           ' ,,###''''                  '''############,,,                           
         ,,##''                                '''############,,,,        ,,,,,,###''
      ,#''                                            '''#######################'''  
     '                                                          ''''####''''         
             ,#######,   #######,   ,#######,      ##                                
            ,#'     '#,  ##    ##  ,#'     '#,    #''#        ######   ,####,        
            ##       ##  ##   ,#'  ##            #'  '#       #        #'  '#        
            ##       ##  #######   ##           ,######,      #####,   #    #        
            '#,     ,#'  ##    ##  '#,     ,#' ,#      #,         ##   #,  ,#        
             '#######'   ##     ##  '#######'  #'      '#     #####' # '####'        



                  #######################################################
                  #                        -***-                        #
                  #          Department of theory and spectroscopy      #
                  #    Directorship and core code : Frank Neese         #
                  #        Max Planck Institute fuer Kohlenforschung    #
                  #                Kaiser Wilhelm Platz 1               #
                  #                 D-45470 Muelheim/Ruhr               #
                  #                      Germany                        #
                  #                                                     #
                  #                  All rights reserved                #
                  #                        -***-                        #
                  #######################################################


                         Program Version 5.0.4 -  RELEASE  -


 With contributions from (in alphabetic order):
   Daniel Aravena         : Magnetic Suceptibility
   Michael Atanasov       : Ab Initio Ligand Field Theory (pilot matlab implementation)
   Alexander A. Auer      : GIAO ZORA, VPT2 properties, NMR spectrum
   Ute Becker             : Parallelization
   Giovanni Bistoni       : ED, misc. LED, open-shell LED, HFLD
   Martin Brehm           : Molecular dynamics
   Dmytro Bykov           : SCF Hessian
   Vijay G. Chilkuri      : MRCI spin determinant printing, contributions to CSF-ICE
   Dipayan Datta          : RHF DLPNO-CCSD density
   Achintya Kumar Dutta   : EOM-CC, STEOM-CC
   Dmitry Ganyushin       : Spin-Orbit,Spin-Spin,Magnetic field MRCI
   Miquel Garcia          : C-PCM and meta-GGA Hessian, CC/C-PCM, Gaussian charge scheme
   Yang Guo               : DLPNO-NEVPT2, F12-NEVPT2, CIM, IAO-localization
   Andreas Hansen         : Spin unrestricted coupled pair/coupled cluster methods
   Benjamin Helmich-Paris : MC-RPA, TRAH-SCF, COSX integrals
   Lee Huntington         : MR-EOM, pCC
   Robert Izsak           : Overlap fitted RIJCOSX, COSX-SCS-MP3, EOM
   Marcus Kettner         : VPT2
   Christian Kollmar      : KDIIS, OOCD, Brueckner-CCSD(T), CCSD density, CASPT2, CASPT2-K
   Simone Kossmann        : Meta GGA functionals, TD-DFT gradient, OOMP2, MP2 Hessian
   Martin Krupicka        : Initial AUTO-CI
   Lucas Lang             : DCDCAS
   Marvin Lechner         : AUTO-CI (C++ implementation), FIC-MRCC
   Dagmar Lenk            : GEPOL surface, SMD
   Dimitrios Liakos       : Extrapolation schemes; Compound Job, initial MDCI parallelization
   Dimitrios Manganas     : Further ROCIS development; embedding schemes
   Dimitrios Pantazis     : SARC Basis sets
   Anastasios Papadopoulos: AUTO-CI, single reference methods and gradients
   Taras Petrenko         : DFT Hessian,TD-DFT gradient, ASA, ECA, R-Raman, ABS, FL, XAS/XES, NRVS
   Peter Pinski           : DLPNO-MP2, DLPNO-MP2 Gradient
   Christoph Reimann      : Effective Core Potentials
   Marius Retegan         : Local ZFS, SOC
   Christoph Riplinger    : Optimizer, TS searches, QM/MM, DLPNO-CCSD(T), (RO)-DLPNO pert. Triples
   Tobias Risthaus        : Range-separated hybrids, TD-DFT gradient, RPA, STAB
   Michael Roemelt        : Original ROCIS implementation
   Masaaki Saitow         : Open-shell DLPNO-CCSD energy and density
   Barbara Sandhoefer     : DKH picture change effects
   Avijit Sen             : IP-ROCIS
   Kantharuban Sivalingam : CASSCF convergence, NEVPT2, FIC-MRCI
   Bernardo de Souza      : ESD, SOC TD-DFT
   Georgi Stoychev        : AutoAux, RI-MP2 NMR, DLPNO-MP2 response
   Willem Van den Heuvel  : Paramagnetic NMR
   Boris Wezisla          : Elementary symmetry handling
   Frank Wennmohs         : Technical directorship


 We gratefully acknowledge several colleagues who have allowed us to
 interface, adapt or use parts of their codes:
   Stefan Grimme, W. Hujo, H. Kruse, P. Pracht,  : VdW corrections, initial TS optimization,
                  C. Bannwarth, S. Ehlert          DFT functionals, gCP, sTDA/sTD-DF
   Ed Valeev, F. Pavosevic, A. Kumar             : LibInt (2-el integral package), F12 methods
   Garnet Chan, S. Sharma, J. Yang, R. Olivares  : DMRG
   Ulf Ekstrom                                   : XCFun DFT Library
   Mihaly Kallay                                 : mrcc  (arbitrary order and MRCC methods)
   Jiri Pittner, Ondrej Demel                    : Mk-CCSD
   Frank Weinhold                                : gennbo (NPA and NBO analysis)
   Christopher J. Cramer and Donald G. Truhlar   : smd solvation model
   Lars Goerigk                                  : TD-DFT with DH, B97 family of functionals
   V. Asgeirsson, H. Jonsson                     : NEB implementation
   FAccTs GmbH                                   : IRC, NEB, NEB-TS, DLPNO-Multilevel, CI-OPT
                                                   MM, QMMM, 2- and 3-layer-ONIOM, Crystal-QMMM,
                                                   LR-CPCM, SF, NACMEs, symmetry and pop. for TD-DFT,
                                                   nearIR, NL-DFT gradient (VV10), updates on ESD,
                                                   ML-optimized integration grids
   S Lehtola, MJT Oliveira, MAL Marques          : LibXC Library
   Liviu Ungur et al                             : ANISO software


 Your calculation uses the libint2 library for the computation of 2-el integrals
 For citations please refer to: http://libint.valeyev.net

 Your ORCA version has been built with support for libXC version: 5.1.0
 For citations please refer to: https://tddft.org/programs/libxc/

 This ORCA versions uses:
   CBLAS   interface :  Fast vector & matrix operations
   LAPACKE interface :  Fast linear algebra routines
   SCALAPACK package :  Parallel linear algebra routines
   Shared memory     :  Shared parallel matrices
   BLAS/LAPACK       :  OpenBLAS 0.3.15  USE64BITINT DYNAMIC_ARCH NO_AFFINITY SkylakeX SINGLE_THREADED
        Core in use  :  SkylakeX
   Copyright (c) 2011-2014, The OpenBLAS Project


Your calculation utilizes the atom-pairwise dispersion correction
with the Becke-Johnson damping scheme (D3BJ)
Cite in your paper:
S.Grimme, S.Ehrlich, L.Goerigk, J Comput Chem, (2011), 32, 1456–1465 
S.Grimme, J.Antony, S.Ehrlich and H.Krieg, J.Chem.Phys., 132, (2010), 154104 
   

================================================================================

----- Orbital basis set information -----
Your calculation utilizes the basis: def2-SVP
   F. Weigend and R. Ahlrichs, Phys. Chem. Chem. Phys. 7, 3297 (2005).

----- AuxJ basis set information -----
Your calculation utilizes the auxiliary basis: def2/J
   F. Weigend, Phys. Chem. Chem. Phys. 8, 1057 (2006).

================================================================================
                                        WARNINGS
                       Please study these warnings very carefully!
================================================================================


WARNING: your system is open-shell and RHF/RKS was chosen
  ===> : WILL SWITCH to UHF/UKS


WARNING: Geometry Optimization
  ===> : Switching off AutoStart
         For restart on a previous wavefunction, please use MOREAD

INFO   : the flag for use of the SHARK integral package has been found!

================================================================================
                                       INPUT FILE
================================================================================
NAME = path_opt1_orca.inp
|  1> ! LooseOpt PBE0 RIJCOSX D3BJ def2-SVP def2/J 
|  2> %geom Constraints
|  3> { B 1 5 2.8901723543034668 C }
|  4> { B 0 1 1.6794854123263885 C }
|  5>     end
|  6> end
|  7> %geom MaxIter 50 end
|  8> %output 
|  9> xyzfile=True 
| 10> end 
| 11> %scf 
| 12> maxiter 250 
| 13> end
| 14> %output
| 15> Print[P_Hirshfeld] = 1
| 16> end
| 17> % maxcore
| 18> 4000
| 19> %pal nprocs 8
| 20> end
| 21> *xyz 0 2
| 22> O   -2.52388884  -0.68411664   0.77291146 
| 23> O   -1.17455427   0.13873338   1.15769672 
| 24> C   -0.62413549   0.48839581  -0.08441377 
| 25> C    0.56934732   1.31605017   0.30516703 
| 26> C    1.72829758   0.57242345   0.11128546 
| 27> C    1.43712410  -0.64249984  -0.49415431 
| 28> C   -0.02191553  -0.72733977  -0.80949384 
| 29> H   -2.70015850  -0.97002533   1.68116584 
| 30> H   -1.37780731   1.03301617  -0.68094028 
| 31> H    0.49067401   2.30061972   0.76608801 
| 32> H    2.73098900   0.90389064   0.38971051 
| 33> H    2.16977864  -1.40783703  -0.75648139 
| 34> H   -0.19052286  -0.67388781  -1.90068496 
| 35> H   -0.51322783  -1.64732292  -0.45785650 
| 36> *
| 37> 
| 38>                          ****END OF INPUT****
================================================================================

                       *****************************
                       * Geometry Optimization Run *
                       *****************************

Geometry optimization settings:
Update method            Update   .... BFGS
Choice of coordinates    CoordSys .... Z-matrix Internals
Initial Hessian          InHess   .... Almoef's Model

Convergence Tolerances:
Energy Change            TolE     ....  3.0000e-05 Eh
Max. Gradient            TolMAXG  ....  2.0000e-03 Eh/bohr
RMS Gradient             TolRMSG  ....  5.0000e-04 Eh/bohr
Max. Displacement        TolMAXD  ....  1.0000e-02 bohr
RMS Displacement         TolRMSD  ....  7.0000e-03 bohr
Strict Convergence                ....  False
------------------------------------------------------------------------------
                        ORCA OPTIMIZATION COORDINATE SETUP
------------------------------------------------------------------------------

The optimization will be done in new redundant internal coordinates
Making redundant internal coordinates   ...  (new redundants) done
Evaluating the initial hessian          ...  (Almloef) done
Evaluating the coordinates              ...  done
Calculating the B-matrix                .... done
Calculating the G-matrix                .... done
Diagonalizing the G-matrix              .... done
Imposing constraints:
 Iter   0:  RMS(Cart)=    0.0851334986 RMS(Int)=    0.1054712666
 Iter   1:  RMS(Cart)=    0.0238898057 RMS(Int)=    0.0280315408
 Iter   2:  RMS(Cart)=    0.0063557789 RMS(Int)=    0.0074524541
 Iter   3:  RMS(Cart)=    0.0016902189 RMS(Int)=    0.0019814755
 Iter   4:  RMS(Cart)=    0.0004494325 RMS(Int)=    0.0005268512
 Iter   5:  RMS(Cart)=    0.0001195012 RMS(Int)=    0.0001400844
 Iter   6:  RMS(Cart)=    0.0000317743 RMS(Int)=    0.0000372471
 Iter   7:  RMS(Cart)=    0.0000084485 RMS(Int)=    0.0000099036
 Iter   8:  RMS(Cart)=    0.0000022464 RMS(Int)=    0.0000026333
 Iter   9:  RMS(Cart)=    0.0000005973 RMS(Int)=    0.0000007002
 Iter  10:  RMS(Cart)=    0.0000001588 RMS(Int)=    0.0000001862
 Iter  11:  RMS(Cart)=    0.0000000422 RMS(Int)=    0.0000000495
CONVERGED
The first mode is                       ....   35
The number of degrees of freedom        ....   36
Storing new coordinates                 .... done

    -----------------------------------------------------------------
                    Redundant Internal Coordinates


    -----------------------------------------------------------------
         Definition                    Initial Value    Approx d2E/dq
    -----------------------------------------------------------------
      1. B(O   1,O   0)                  1.6795         0.210147 C 
      2. B(C   2,O   1)                  1.3294         0.533742   
      3. B(C   3,C   2)                  1.4896         0.411433   
      4. B(C   4,C   3)                  1.3584         0.623447   
      5. B(C   5,O   1)                  2.8902         0.000759 C 
      6. B(C   5,C   4)                  1.3808         0.628710   
      7. B(C   6,C   2)                  1.4891         0.362332   
      8. B(C   6,C   5)                  1.4485         0.424619   
      9. B(H   7,O   0)                  0.9709         0.504211   
     10. B(H   8,C   2)                  1.1049         0.341105   
     11. B(H   9,C   3)                  1.0900         0.360152   
     12. B(H  10,C   4)                  1.0932         0.357273   
     13. B(H  11,C   5)                  1.0928         0.358141   
     14. B(H  12,C   6)                  1.1062         0.340251   
     15. B(H  13,C   6)                  1.1014         0.346298   
     16. A(O   1,O   0,H   7)           94.4546         0.305698   
     17. A(O   0,O   1,C   2)          103.8770         0.343678   
     18. A(O   1,C   2,C   3)          100.5959         0.390494   
     19. A(C   3,C   2,C   6)          108.9869         0.367479   
     20. A(O   1,C   2,C   6)          106.0312         0.381946   
     21. A(C   3,C   2,H   8)          112.9269         0.326584   
     22. A(C   6,C   2,H   8)          113.3424         0.319848   
     23. A(O   1,C   2,H   8)          114.0045         0.338927   
     24. A(C   2,C   3,C   4)          106.5759         0.403875   
     25. A(C   2,C   3,H   9)          124.9016         0.329524   
     26. A(C   4,C   3,H   9)          128.0739         0.353249   
     27. A(C   5,C   4,H  10)          125.5420         0.353272   
     28. A(C   3,C   4,C   5)          109.0246         0.435592   
     29. A(C   3,C   4,H  10)          125.4251         0.352769   
     30. A(C   4,C   5,C   6)          114.4171         0.406735   
     31. A(C   4,C   5,H  11)          123.2175         0.353417   
     32. A(C   6,C   5,H  11)          122.2522         0.330941   
     33. A(H  12,C   6,H  13)          106.0854         0.286511   
     34. A(C   2,C   6,H  12)          112.8921         0.319717   
     35. A(C   5,C   6,H  12)          113.0551         0.328151   
     36. A(C   2,C   6,H  13)          110.8834         0.320639   
     37. A(C   2,C   6,C   5)           99.3089         0.369474   
     38. A(C   5,C   6,H  13)          114.7618         0.329107   
     39. D(C   2,O   1,O   0,H   7)    171.6562         0.004412   
     40. D(C   3,C   2,O   1,O   0)    175.6560         0.024579   
     41. D(C   6,C   2,O   1,O   0)    -70.8820         0.024579   
     42. D(H   8,C   2,O   1,O   0)     54.5153         0.024579   
     43. D(C   4,C   3,C   2,O   1)    100.0124         0.012534   
     44. D(C   4,C   3,C   2,C   6)    -11.1789         0.012534   
     45. D(H   9,C   3,C   2,H   8)     49.0842         0.012534   
     46. D(H   9,C   3,C   2,O   1)    -72.8192         0.012534   
     47. D(C   4,C   3,C   2,H   8)   -138.0842         0.012534   
     48. D(H   9,C   3,C   2,C   6)    175.9896         0.012534   
     49. D(C   5,C   4,C   3,C   2)      4.1879         0.026914   
     50. D(C   5,C   4,C   3,H   9)    176.7180         0.026914   
     51. D(H  10,C   4,C   3,C   2)   -174.8074         0.026914   
     52. D(H  10,C   4,C   3,H   9)     -2.2773         0.026914   
     53. D(C   6,C   5,C   4,C   3)      4.5794         0.029778   
     54. D(C   6,C   5,C   4,H  10)   -176.4268         0.029778   
     55. D(H  11,C   5,C   4,C   3)   -179.2151         0.029778   
     56. D(H  11,C   5,C   4,H  10)     -0.2213         0.029778   
     57. D(H  12,C   6,C   5,H  11)    -67.1772         0.014259   
     58. D(C   5,C   6,C   2,C   3)     12.7116         0.010523   
     59. D(C   5,C   6,C   2,H   8)    139.3795         0.010523   
     60. D(H  13,C   6,C   2,H   8)    -99.5015         0.010523   
     61. D(H  12,C   6,C   2,C   3)   -107.2874         0.010523   
     62. D(H  12,C   6,C   2,H   8)     19.3806         0.010523   
     63. D(H  13,C   6,C   2,O   1)     26.3013         0.010523   
     64. D(H  12,C   6,C   2,O   1)    145.1833         0.010523   
     65. D(H  13,C   6,C   2,C   3)    133.8306         0.010523   
     66. D(C   2,C   6,C   5,C   4)    -10.8097         0.014259   
     67. D(C   2,C   6,C   5,H  11)    172.9438         0.014259   
     68. D(C   5,C   6,C   2,O   1)    -94.8177         0.010523   
     69. D(H  12,C   6,C   5,C   4)    109.0693         0.014259   
     70. D(H  13,C   6,C   5,C   4)   -129.0654         0.014259   
     71. D(H  13,C   6,C   5,H  11)     54.6882         0.014259   
    -----------------------------------------------------------------

Number of atoms                         .... 14
Number of degrees of freedom            .... 71

         *************************************************************
         *                GEOMETRY OPTIMIZATION CYCLE   1            *
         *************************************************************
---------------------------------
CARTESIAN COORDINATES (ANGSTROEM)
---------------------------------
  O     -2.424868   -0.741463    0.714831
  O     -1.028892    0.119892    1.075368
  C     -0.582445    0.515367   -0.112777
  C      0.578807    1.353972    0.296204
  C      1.688045    0.587772    0.129272
  C      1.321641   -0.617505   -0.436034
  C     -0.079377   -0.710626   -0.791956
  H     -2.546608   -1.070151    1.620202
  H     -1.326618    1.072510   -0.709872
  H      0.505166    2.338392    0.758302
  H      2.704211    0.873485    0.413641
  H      2.034392   -1.415219   -0.659492
  H     -0.250477   -0.698090   -1.884766
  H     -0.592978   -1.608236   -0.412926

----------------------------
CARTESIAN COORDINATES (A.U.)
----------------------------
  NO LB      ZA    FRAG     MASS         X           Y           Z
   0 O     8.0000    0    15.999   -4.582337   -1.401163    1.350836
   1 O     8.0000    0    15.999   -1.944323    0.226563    2.032152
   2 C     6.0000    0    12.011   -1.100662    0.973903   -0.213118
   3 C     6.0000    0    12.011    1.093786    2.558635    0.559744
   4 C     6.0000    0    12.011    3.189943    1.110728    0.244289
   5 C     6.0000    0    12.011    2.497540   -1.166916   -0.823984
   6 C     6.0000    0    12.011   -0.150000   -1.342888   -1.496579
   7 H     1.0000    0     1.008   -4.812392   -2.022292    3.061739
   8 H     1.0000    0     1.008   -2.506945    2.026751   -1.341463
   9 H     1.0000    0     1.008    0.954625    4.418920    1.432984
  10 H     1.0000    0     1.008    5.110219    1.650647    0.781669
  11 H     1.0000    0     1.008    3.844444   -2.674376   -1.246260
  12 H     1.0000    0     1.008   -0.473333   -1.319200   -3.561691
  13 H     1.0000    0     1.008   -1.120566   -3.039125   -0.780317

--------------------------------
INTERNAL COORDINATES (ANGSTROEM)
--------------------------------
 O      0   0   0     0.000000000000     0.00000000     0.00000000
 O      1   0   0     1.626605555605     0.00000000     0.00000000
 C      2   1   0     1.402876729331   104.01099527     0.00000000
 C      3   2   1     1.503724096077   102.66209184   176.65699946
 C      4   3   2     1.390588532614   109.33085982   105.40666141
 C      5   4   3     1.388300367765   110.73093585     5.61727180
 C      6   5   4     1.495136607409   110.26153430     3.05018613
 H      1   2   3     0.968370172425    94.50140404   171.42480586
 H      3   2   1     1.104751748549   109.46886079    54.97935938
 H      4   3   2     1.089960934299   123.32950498   291.44397262
 H      5   4   3     1.092145178195   124.56342902   185.11539741
 H      6   5   4     1.091484853894   125.28549526   179.88525578
 H      7   6   5     1.105433672422   110.75009158   109.82076033
 H      7   6   5     1.100638719698   114.56080992   230.57840481

---------------------------
INTERNAL COORDINATES (A.U.)
---------------------------
 O      0   0   0     0.000000000000     0.00000000     0.00000000
 O      1   0   0     3.073839028008     0.00000000     0.00000000
 C      2   1   0     2.651052818087   104.01099527     0.00000000
 C      3   2   1     2.841626722563   102.66209184   176.65699946
 C      4   3   2     2.627831491612   109.33085982   105.40666141
 C      5   4   3     2.623507486699   110.73093585     5.61727180
 C      6   5   4     2.825398720803   110.26153430     3.05018613
 H      1   2   3     1.829954422142    94.50140404   171.42480586
 H      3   2   1     2.087678250728   109.46886079    54.97935938
 H      4   3   2     2.059727662498   123.32950498   291.44397262
 H      5   4   3     2.063855285272   124.56342902   185.11539741
 H      6   5   4     2.062607453184   125.28549526   179.88525578
 H      7   6   5     2.088966900092   110.75009158   109.82076033
 H      7   6   5     2.079905752618   114.56080992   230.57840481

---------------------
BASIS SET INFORMATION
---------------------
There are 3 groups of distinct atoms

 Group   1 Type O   : 7s4p1d contracted to 3s2p1d pattern {511/31/1}
 Group   2 Type C   : 7s4p1d contracted to 3s2p1d pattern {511/31/1}
 Group   3 Type H   : 4s1p contracted to 2s1p pattern {31/1}

Atom   0O    basis set group =>   1
Atom   1O    basis set group =>   1
Atom   2C    basis set group =>   2
Atom   3C    basis set group =>   2
Atom   4C    basis set group =>   2
Atom   5C    basis set group =>   2
Atom   6C    basis set group =>   2
Atom   7H    basis set group =>   3
Atom   8H    basis set group =>   3
Atom   9H    basis set group =>   3
Atom  10H    basis set group =>   3
Atom  11H    basis set group =>   3
Atom  12H    basis set group =>   3
Atom  13H    basis set group =>   3
---------------------------------
AUXILIARY/J BASIS SET INFORMATION
---------------------------------
There are 3 groups of distinct atoms

 Group   1 Type O   : 12s5p4d2f1g contracted to 6s4p3d1f1g pattern {711111/2111/211/2/1}
 Group   2 Type C   : 12s5p4d2f1g contracted to 6s4p3d1f1g pattern {711111/2111/211/2/1}
 Group   3 Type H   : 5s2p1d contracted to 3s1p1d pattern {311/2/1}

Atom   0O    basis set group =>   1
Atom   1O    basis set group =>   1
Atom   2C    basis set group =>   2
Atom   3C    basis set group =>   2
Atom   4C    basis set group =>   2
Atom   5C    basis set group =>   2
Atom   6C    basis set group =>   2
Atom   7H    basis set group =>   3
Atom   8H    basis set group =>   3
Atom   9H    basis set group =>   3
Atom  10H    basis set group =>   3
Atom  11H    basis set group =>   3
Atom  12H    basis set group =>   3
Atom  13H    basis set group =>   3


           ************************************************************
           *        Program running with 8 parallel MPI-processes     *
           *              working on a common directory               *
           ************************************************************
------------------------------------------------------------------------------
                           ORCA GTO INTEGRAL CALCULATION
                           -- RI-GTO INTEGRALS CHOSEN --
------------------------------------------------------------------------------
------------------------------------------------------------------------------
                   ___                                                        
                  /   \      - P O W E R E D   B Y -                         
                 /     \                                                     
                 |  |  |   _    _      __       _____    __    __             
                 |  |  |  | |  | |    /  \     |  _  \  |  |  /  |          
                  \  \/   | |  | |   /    \    | | | |  |  | /  /          
                 / \  \   | |__| |  /  /\  \   | |_| |  |  |/  /          
                |  |  |   |  __  | /  /__\  \  |    /   |      \           
                |  |  |   | |  | | |   __   |  |    \   |  |\   \          
                \     /   | |  | | |  |  |  |  | |\  \  |  | \   \       
                 \___/    |_|  |_| |__|  |__|  |_| \__\ |__|  \__/        
                                                                              
                      - O R C A' S   B I G   F R I E N D -                    
                                      &                                       
                       - I N T E G R A L  F E E D E R -                       
                                                                              
 v1 FN, 2020, v2 2021                                                         
------------------------------------------------------------------------------


Reading SHARK input file path_opt1_orca.SHARKINP.tmp ... ok
----------------------
SHARK INTEGRAL PACKAGE
----------------------

Number of atoms                             ...     14
Number of basis functions                   ...    133
Number of shells                            ...     63
Maximum angular momentum                    ...      2
Integral batch strategy                     ... SHARK/LIBINT Hybrid
RI-J (if used) integral strategy            ... SPLIT-RIJ (Revised 2003 algorithm where possible)
Printlevel                                  ...      1
Contraction scheme used                     ... SEGMENTED contraction
Coulomb Range Separation                    ... NOT USED
Exchange Range Separation                   ... NOT USED
Finite Nucleus Model                        ... NOT USED
Auxiliary Coulomb fitting basis             ... AVAILABLE
   # of basis functions in Aux-J            ...    420
   # of shells in Aux-J                     ...    140
   Maximum angular momentum in Aux-J        ...      4
Auxiliary J/K fitting basis                 ... NOT available
Auxiliary Correlation fitting basis         ... NOT available
Auxiliary 'external' fitting basis          ... NOT available
Integral threshold                          ...     2.500000e-11
Primitive cut-off                           ...     2.500000e-12
Primitive pair pre-selection threshold      ...     2.500000e-12

Calculating pre-screening integrals         ... done (  0.0 sec) Dimension = 63
Organizing shell pair data                  ... done (  0.0 sec)
Shell pair information
Total number of shell pairs                 ...      2016
Shell pairs after pre-screening             ...      1955
Total number of primitive shell pairs       ...      7252
Primitive shell pairs kept                  ...      5367
          la=0 lb=0:    605 shell pairs
          la=1 lb=0:    714 shell pairs
          la=1 lb=1:    226 shell pairs
          la=2 lb=0:    238 shell pairs
          la=2 lb=1:    144 shell pairs
          la=2 lb=2:     28 shell pairs

Calculating one electron integrals          ... done (  0.0 sec)
Calculating RI/J V-Matrix + Cholesky decomp.... done (  0.0 sec)
Calculating Nuclear repulsion               ... done (  0.0 sec) ENN=    303.346888787651 Eh

SHARK setup successfully completed in   0.1 seconds

Maximum memory used throughout the entire GTOINT-calculation: 10.7 MB


           ************************************************************
           *        Program running with 8 parallel MPI-processes     *
           *              working on a common directory               *
           ************************************************************
-------------------------------------------------------------------------------
                                 ORCA SCF
-------------------------------------------------------------------------------

------------
SCF SETTINGS
------------
Hamiltonian:
 Density Functional     Method          .... DFT(GTOs)
 Exchange Functional    Exchange        .... PBE
   PBE kappa parameter   XKappa         ....  0.804000
   PBE mue parameter    XMuePBE         ....  0.219520
 Correlation Functional Correlation     .... PBE
   PBE beta parameter  CBetaPBE         ....  0.066725
 LDA part of GGA corr.  LDAOpt          .... PW91-LDA
 Gradients option       PostSCFGGA      .... off
 Hybrid DFT is turned on
   Fraction HF Exchange ScalHFX         ....  0.250000
   Scaling of DF-GGA-X  ScalDFX         ....  0.750000
   Scaling of DF-GGA-C  ScalDFC         ....  1.000000
   Scaling of DF-LDA-C  ScalLDAC        ....  1.000000
   Perturbative correction              ....  0.000000
   Density functional embedding theory  .... OFF
   NL short-range parameter             ....  6.900000
 RI-approximation to the Coulomb term is turned on
   Number of AuxJ basis functions       .... 420
   RIJ-COSX (HFX calculated with COS-X)).... on


General Settings:
 Integral files         IntName         .... path_opt1_orca
 Hartree-Fock type      HFTyp           .... UHF
 Total Charge           Charge          ....    0
 Multiplicity           Mult            ....    2
 Number of Electrons    NEL             ....   53
 Basis Dimension        Dim             ....  133
 Nuclear Repulsion      ENuc            ....    303.3468887877 Eh

Convergence Acceleration:
 DIIS                   CNVDIIS         .... on
   Start iteration      DIISMaxIt       ....    12
   Startup error        DIISStart       ....  0.200000
   # of expansion vecs  DIISMaxEq       ....     5
   Bias factor          DIISBfac        ....   1.050
   Max. coefficient     DIISMaxC        ....  10.000
 Trust-Rad. Augm. Hess. CNVTRAH         .... auto
   Auto Start mean grad. ratio tolernc. ....  1.125000
   Auto Start start iteration           ....    20
   Auto Start num. interpolation iter.  ....    10
   Max. Number of Micro iterations      ....    16
   Max. Number of Macro iterations      .... Maxiter - #DIIS iter
   Number of Davidson start vectors     ....     2
   Converg. threshold I  (grad. norm)   ....   1.000e-05
   Converg. threshold II (energy diff.) ....   1.000e-08
   Grad. Scal. Fac. for Micro threshold ....   0.100
   Minimum threshold for Micro iter.    ....   0.010
   NR start threshold (gradient norm)   ....   0.001
   Initial trust radius                 ....   0.400
   Minimum AH scaling param. (alpha)    ....   1.000
   Maximum AH scaling param. (alpha)    .... 1000.000
   Orbital update algorithm             .... Taylor
   White noise on init. David. guess    .... on
   Maximum white noise                  ....   0.010
   Quad. conv. algorithm                .... NR
 SOSCF                  CNVSOSCF        .... off
 Level Shifting         CNVShift        .... on
   Level shift para.    LevelShift      ....    0.2500
   Turn off err/grad.   ShiftErr        ....    0.0010
 Zerner damping         CNVZerner       .... off
 Static damping         CNVDamp         .... on
   Fraction old density DampFac         ....    0.7000
   Max. Damping (<1)    DampMax         ....    0.9800
   Min. Damping (>=0)   DampMin         ....    0.0000
   Turn off err/grad.   DampErr         ....    0.1000
 Fernandez-Rico         CNVRico         .... off

SCF Procedure:
 Maximum # iterations   MaxIter         ....   250
 SCF integral mode      SCFMode         .... Direct
   Integral package                     .... SHARK and LIBINT hybrid scheme
 Reset frequency        DirectResetFreq ....    20
 Integral Threshold     Thresh          ....  2.500e-11 Eh
 Primitive CutOff       TCut            ....  2.500e-12 Eh

Convergence Tolerance:
 Convergence Check Mode ConvCheckMode   .... Total+1el-Energy
 Convergence forced     ConvForced      .... 0
 Energy Change          TolE            ....  1.000e-08 Eh
 1-El. energy change                    ....  1.000e-05 Eh
 DIIS Error             TolErr          ....  5.000e-07


Diagonalization of the overlap matrix:
Smallest eigenvalue                        ... 8.285e-04
Time for diagonalization                   ...    0.002 sec
Threshold for overlap eigenvalues          ... 1.000e-08
Number of eigenvalues below threshold      ... 0
Time for construction of square roots      ...    0.001 sec
Total time needed                          ...    0.004 sec

Time for model grid setup =    0.043 sec

------------------------------
INITIAL GUESS: MODEL POTENTIAL
------------------------------
Loading Hartree-Fock densities                     ... done
Calculating cut-offs                               ... done
Initializing the effective Hamiltonian             ... done
Setting up the integral package (SHARK)            ... done
Starting the Coulomb interaction                   ... done (   0.0 sec)
Reading the grid                                   ... done
Mapping shells                                     ... done
Starting the XC term evaluation                    ... done (   0.0 sec)
  promolecular density results
     # of electrons  =     52.997379071
     EX              =    -43.907784668
     EC              =     -1.762024257
     EX+EC           =    -45.669808925
Transforming the Hamiltonian                       ... done (   0.0 sec)
Diagonalizing the Hamiltonian                      ... done (   0.0 sec)
Back transforming the eigenvectors                 ... done (   0.0 sec)
Now organizing SCF variables                       ... done
                      ------------------
                      INITIAL GUESS DONE (   0.1 sec)
                      ------------------
-------------------
DFT GRID GENERATION
-------------------

General Integration Accuracy     IntAcc      ... 4.388
Radial Grid Type                 RadialGrid  ... OptM3 with GC (2021)
Angular Grid (max. ang.)         AngularGrid ... 4 (Lebedev-302)
Angular grid pruning method      GridPruning ... 4 (adaptive)
Weight generation scheme         WeightScheme... Becke
Basis function cutoff            BFCut       ... 1.0000e-11
Integration weight cutoff        WCut        ... 1.0000e-14
Angular grids for H and He will be reduced by one unit
Partially contracted basis set               ... off
Rotationally invariant grid construction     ... off

Total number of grid points                  ...    64836
Total number of batches                      ...     1020
Average number of points per batch           ...       63
Average number of grid points per atom       ...     4631
Time for grid setup =    0.245 sec

--------------------
COSX GRID GENERATION
--------------------

GRIDX 1
-------
General Integration Accuracy     IntAcc      ... 3.816
Radial Grid Type                 RadialGrid  ... OptM3 with GC (2021)
Angular Grid (max. ang.)         AngularGrid ... 1 (Lebedev-50)
Angular grid pruning method      GridPruning ... 4 (adaptive)
Weight generation scheme         WeightScheme... Becke
Basis function cutoff            BFCut       ... 1.0000e-11
Integration weight cutoff        WCut        ... 1.0000e-14
Angular grids for H and He will be reduced by one unit
Partially contracted basis set               ... on
Rotationally invariant grid construction     ... off

Total number of grid points                  ...     8288
Total number of batches                      ...      135
Average number of points per batch           ...       61
Average number of grid points per atom       ...      592
UseSFitting                                  ... on

GRIDX 2
-------
General Integration Accuracy     IntAcc      ... 4.020
Radial Grid Type                 RadialGrid  ... OptM3 with GC (2021)
Angular Grid (max. ang.)         AngularGrid ... 2 (Lebedev-110)
Angular grid pruning method      GridPruning ... 4 (adaptive)
Weight generation scheme         WeightScheme... Becke
Basis function cutoff            BFCut       ... 1.0000e-11
Integration weight cutoff        WCut        ... 1.0000e-14
Angular grids for H and He will be reduced by one unit
Partially contracted basis set               ... on
Rotationally invariant grid construction     ... off

Total number of grid points                  ...    18012
Total number of batches                      ...      289
Average number of points per batch           ...       62
Average number of grid points per atom       ...     1287
UseSFitting                                  ... on

GRIDX 3
-------
General Integration Accuracy     IntAcc      ... 4.338
Radial Grid Type                 RadialGrid  ... OptM3 with GC (2021)
Angular Grid (max. ang.)         AngularGrid ... 3 (Lebedev-194)
Angular grid pruning method      GridPruning ... 4 (adaptive)
Weight generation scheme         WeightScheme... Becke
Basis function cutoff            BFCut       ... 1.0000e-11
Integration weight cutoff        WCut        ... 1.0000e-14
Angular grids for H and He will be reduced by one unit
Partially contracted basis set               ... on
Rotationally invariant grid construction     ... off

Total number of grid points                  ...    39614
Total number of batches                      ...      625
Average number of points per batch           ...       63
Average number of grid points per atom       ...     2830
UseSFitting                                  ... on

Time for X-Grid setup             =    0.180 sec

--------------
SCF ITERATIONS
--------------
ITER       Energy         Delta-E        Max-DP      RMS-DP      [F,P]     Damp
               ***  Starting incremental Fock matrix formation  ***
  0   -344.2167960500   0.000000000000 0.03340770  0.00114425  0.0856338 0.7000
  1   -344.2741676150  -0.057371564978 0.02132167  0.00080244  0.0392462 0.7000
                               ***Turning on DIIS***
  2   -344.2999927923  -0.025825177292 0.03331820  0.00145310  0.0171823 0.0000
  3   -344.3403027623  -0.040309969950 0.01482785  0.00058867  0.0209591 0.0000
  4   -344.3493821167  -0.009079354400 0.00597723  0.00018574  0.0040456 0.0000
  5   -344.3500110491  -0.000628932434 0.00353038  0.00011792  0.0036515 0.0000
  6   -344.3503263726  -0.000315323527 0.00327589  0.00009984  0.0022844 0.0000
  7   -344.3505449710  -0.000218598326 0.00237358  0.00007242  0.0012576 0.0000
  8   -344.3506447012  -0.000099730199 0.00341009  0.00011132  0.0009549 0.0000
               *** Restarting incremental Fock matrix formation ***
                                   *** Resetting DIIS ***
  9   -344.3507224628  -0.000077761603 0.00092090  0.00003582  0.0004610 0.0000
 10   -344.3507251920  -0.000002729283 0.00071270  0.00001865  0.0008551 0.0000
 11   -344.3507314110  -0.000006218913 0.00039805  0.00000951  0.0005167 0.0000
 12   -344.3507330575  -0.000001646567 0.00033640  0.00001074  0.0003063 0.0000
 13   -344.3507346038  -0.000001546267 0.00029062  0.00000688  0.0001626 0.0000
 14   -344.3507352542  -0.000000650407 0.00016474  0.00000420  0.0000894 0.0000
 15   -344.3507355713  -0.000000317120 0.00022541  0.00000513  0.0000705 0.0000
 16   -344.3507358509  -0.000000279555 0.00018773  0.00000432  0.0000559 0.0000
 17   -344.3507360053  -0.000000154422 0.00018965  0.00000384  0.0000271 0.0000
 18   -344.3507360651  -0.000000059770 0.00006784  0.00000132  0.0000320 0.0000
 19   -344.3507360798  -0.000000014723 0.00003618  0.00000064  0.0000146 0.0000
 20   -344.3507360805  -0.000000000725 0.00001274  0.00000026  0.0000048 0.0000
 21   -344.3507360800   0.000000000476 0.00000504  0.00000012  0.0000017 0.0000
                 **** Energy Check signals convergence ****

               *****************************************************
               *                     SUCCESS                       *
               *           SCF CONVERGED AFTER  22 CYCLES          *
               *****************************************************

Old exchange energy                            =    -11.183947324 Eh
New exchange energy                            =    -11.183958817 Eh
Exchange energy change after final integration =     -0.000011493 Eh
Total energy after final integration           =   -344.350747576 Eh
Final COS-X integration done in                =     0.677 sec

----------------
TOTAL SCF ENERGY
----------------

Total Energy       :         -344.35074758 Eh           -9370.26022 eV

Components:
Nuclear Repulsion  :          303.34688879 Eh            8254.48849 eV
Electronic Energy  :         -647.69763636 Eh          -17624.74871 eV
One Electron Energy:        -1069.88165720 Eh          -29112.95997 eV
Two Electron Energy:          422.18402083 Eh           11488.21126 eV
Max COSX asymmetry :            0.00000070 Eh               0.00002 eV

Virial components:
Potential Energy   :         -686.14195929 Eh          -18670.87192 eV
Kinetic Energy     :          341.79121171 Eh            9300.61170 eV
Virial Ratio       :            2.00748859


DFT components:
N(Alpha)           :       27.000001415764 electrons
N(Beta)            :       26.000006153139 electrons
N(Total)           :       53.000007568903 electrons
E(X)               :      -33.500399230441 Eh       
E(C)               :       -1.772881597942 Eh       
E(XC)              :      -35.273280828383 Eh       
DFET-embed. en.    :        0.000000000000 Eh       

---------------
SCF CONVERGENCE
---------------

  Last Energy change         ...   -3.2080e-09  Tolerance :   1.0000e-08
  Last MAX-Density change    ...    0.0000e+00  Tolerance :   1.0000e-07
  Last RMS-Density change    ...    0.0000e+00  Tolerance :   5.0000e-09
  Last DIIS Error            ...    1.5038e-06  Tolerance :   5.0000e-07

             **** THE GBW FILE WAS UPDATED (path_opt1_orca.gbw) ****
             **** DENSITY path_opt1_orca.scfp WAS UPDATED ****
             **** ENERGY FILE WAS UPDATED (path_opt1_orca.en.tmp) ****
----------------------
UHF SPIN CONTAMINATION
----------------------

Warning: in a DFT calculation there is little theoretical justification to 
         calculate <S**2> as in Hartree-Fock theory. We will do it anyways
         but you should keep in mind that the values have only limited relevance

Expectation value of <S**2>     :     0.785666
Ideal value S*(S+1) for S=0.5   :     0.750000
Deviation                       :     0.035666

             **** THE GBW FILE WAS UPDATED (path_opt1_orca.gbw) ****
             **** DENSITY path_opt1_orca.scfp WAS UPDATED ****
----------------
ORBITAL ENERGIES
----------------
                 SPIN UP ORBITALS
  NO   OCC          E(Eh)            E(eV) 
   0   1.0000     -19.261652      -524.1362 
   1   1.0000     -19.247476      -523.7504 
   2   1.0000     -10.276058      -279.6258 
   3   1.0000     -10.247579      -278.8508 
   4   1.0000     -10.245023      -278.7813 
   5   1.0000     -10.239786      -278.6387 
   6   1.0000     -10.222237      -278.1612 
   7   1.0000      -1.088959       -29.6321 
   8   1.0000      -0.964945       -26.2575 
   9   1.0000      -0.875841       -23.8329 
  10   1.0000      -0.748352       -20.3637 
  11   1.0000      -0.701655       -19.0930 
  12   1.0000      -0.582809       -15.8590 
  13   1.0000      -0.566526       -15.4159 
  14   1.0000      -0.547627       -14.9017 
  15   1.0000      -0.506350       -13.7785 
  16   1.0000      -0.483119       -13.1463 
  17   1.0000      -0.440778       -11.9942 
  18   1.0000      -0.412080       -11.2133 
  19   1.0000      -0.407143       -11.0789 
  20   1.0000      -0.396872       -10.7994 
  21   1.0000      -0.395484       -10.7617 
  22   1.0000      -0.352175        -9.5832 
  23   1.0000      -0.338243        -9.2040 
  24   1.0000      -0.320116        -8.7108 
  25   1.0000      -0.267038        -7.2665 
  26   1.0000      -0.201073        -5.4715 
  27   0.0000      -0.061768        -1.6808 
  28   0.0000       0.043364         1.1800 
  29   0.0000       0.079556         2.1648 
  30   0.0000       0.093639         2.5480 
  31   0.0000       0.114781         3.1233 
  32   0.0000       0.125213         3.4072 
  33   0.0000       0.135957         3.6996 
  34   0.0000       0.147142         4.0039 
  35   0.0000       0.168758         4.5921 
  36   0.0000       0.207787         5.6542 
  37   0.0000       0.221131         6.0173 
  38   0.0000       0.271670         7.3925 
  39   0.0000       0.294633         8.0174 
  40   0.0000       0.350939         9.5495 
  41   0.0000       0.376175        10.2363 
  42   0.0000       0.420539        11.4434 
  43   0.0000       0.449123        12.2213 
  44   0.0000       0.469298        12.7703 
  45   0.0000       0.498129        13.5548 
  46   0.0000       0.506485        13.7822 
  47   0.0000       0.539242        14.6735 
  48   0.0000       0.546523        14.8717 
  49   0.0000       0.585387        15.9292 
  50   0.0000       0.594202        16.1691 
  51   0.0000       0.624294        16.9879 
  52   0.0000       0.634995        17.2791 
  53   0.0000       0.636408        17.3175 
  54   0.0000       0.651612        17.7313 
  55   0.0000       0.659124        17.9357 
  56   0.0000       0.684401        18.6235 
  57   0.0000       0.701559        19.0904 
  58   0.0000       0.707055        19.2399 
  59   0.0000       0.718561        19.5530 
  60   0.0000       0.731806        19.9135 
  61   0.0000       0.758444        20.6383 
  62   0.0000       0.795548        21.6480 
  63   0.0000       0.816565        22.2199 
  64   0.0000       0.839699        22.8494 
  65   0.0000       0.854755        23.2591 
  66   0.0000       0.927491        25.2383 
  67   0.0000       0.953747        25.9528 
  68   0.0000       1.009549        27.4712 
  69   0.0000       1.035419        28.1752 
  70   0.0000       1.080141        29.3921 
  71   0.0000       1.109922        30.2025 
  72   0.0000       1.179632        32.0994 
  73   0.0000       1.185244        32.2521 
  74   0.0000       1.218356        33.1532 
  75   0.0000       1.238793        33.7093 
  76   0.0000       1.283359        34.9220 
  77   0.0000       1.306035        35.5390 
  78   0.0000       1.370234        37.2860 
  79   0.0000       1.451907        39.5084 
  80   0.0000       1.508285        41.0425 
  81   0.0000       1.536363        41.8066 
  82   0.0000       1.565514        42.5998 
  83   0.0000       1.595850        43.4253 
  84   0.0000       1.632229        44.4152 
  85   0.0000       1.664679        45.2982 
  86   0.0000       1.677667        45.6517 
  87   0.0000       1.706070        46.4245 
  88   0.0000       1.742171        47.4069 
  89   0.0000       1.781186        48.4685 
  90   0.0000       1.809787        49.2468 
  91   0.0000       1.825463        49.6734 
  92   0.0000       1.852518        50.4096 
  93   0.0000       1.865341        50.7585 
  94   0.0000       1.882889        51.2360 
  95   0.0000       1.898112        51.6503 
  96   0.0000       1.927220        52.4423 
  97   0.0000       1.965594        53.4865 
  98   0.0000       1.972274        53.6683 
  99   0.0000       2.035359        55.3849 
 100   0.0000       2.096909        57.0598 
 101   0.0000       2.113344        57.5070 
 102   0.0000       2.129121        57.9363 
 103   0.0000       2.138426        58.1895 
 104   0.0000       2.207746        60.0758 
 105   0.0000       2.229781        60.6754 
 106   0.0000       2.273578        61.8672 
 107   0.0000       2.308677        62.8223 
 108   0.0000       2.349433        63.9313 
 109   0.0000       2.454621        66.7936 
 110   0.0000       2.479649        67.4747 
 111   0.0000       2.513403        68.3932 
 112   0.0000       2.523587        68.6703 
 113   0.0000       2.552862        69.4669 
 114   0.0000       2.555470        69.5379 
 115   0.0000       2.655185        72.2512 
 116   0.0000       2.711924        73.7952 
 117   0.0000       2.719998        74.0149 
 118   0.0000       2.745678        74.7137 
 119   0.0000       2.788718        75.8849 
 120   0.0000       2.849576        77.5409 
 121   0.0000       2.852241        77.6134 
 122   0.0000       2.922080        79.5139 
 123   0.0000       2.958990        80.5182 
 124   0.0000       2.986768        81.2741 
 125   0.0000       3.087170        84.0062 
 126   0.0000       3.092704        84.1568 
 127   0.0000       3.162640        86.0598 
 128   0.0000       3.230671        87.9110 
 129   0.0000       3.326469        90.5178 
 130   0.0000       3.453657        93.9788 
 131   0.0000       3.509609        95.5013 
 132   0.0000       3.744392       101.8901 

                 SPIN DOWN ORBITALS
  NO   OCC          E(Eh)            E(eV) 
   0   1.0000     -19.261887      -524.1426 
   1   1.0000     -19.244388      -523.6664 
   2   1.0000     -10.276557      -279.6393 
   3   1.0000     -10.243513      -278.7402 
   4   1.0000     -10.238701      -278.6092 
   5   1.0000     -10.234991      -278.5083 
   6   1.0000     -10.222931      -278.1801 
   7   1.0000      -1.087087       -29.5811 
   8   1.0000      -0.958215       -26.0744 
   9   1.0000      -0.866708       -23.5843 
  10   1.0000      -0.741209       -20.1693 
  11   1.0000      -0.689154       -18.7528 
  12   1.0000      -0.575759       -15.6672 
  13   1.0000      -0.562266       -15.3000 
  14   1.0000      -0.540911       -14.7189 
  15   1.0000      -0.500868       -13.6293 
  16   1.0000      -0.480195       -13.0668 
  17   1.0000      -0.436462       -11.8767 
  18   1.0000      -0.407143       -11.0789 
  19   1.0000      -0.401671       -10.9300 
  20   1.0000      -0.393624       -10.7111 
  21   1.0000      -0.387979       -10.5575 
  22   1.0000      -0.342528        -9.3207 
  23   1.0000      -0.327496        -8.9116 
  24   1.0000      -0.304733        -8.2922 
  25   1.0000      -0.265632        -7.2282 
  26   0.0000      -0.081453        -2.2164 
  27   0.0000      -0.038464        -1.0466 
  28   0.0000       0.065854         1.7920 
  29   0.0000       0.082974         2.2578 
  30   0.0000       0.095721         2.6047 
  31   0.0000       0.117313         3.1922 
  32   0.0000       0.128549         3.4980 
  33   0.0000       0.140644         3.8271 
  34   0.0000       0.151318         4.1176 
  35   0.0000       0.172347         4.6898 
  36   0.0000       0.211979         5.7682 
  37   0.0000       0.225176         6.1274 
  38   0.0000       0.276924         7.5355 
  39   0.0000       0.301148         8.1947 
  40   0.0000       0.356906         9.7119 
  41   0.0000       0.380360        10.3501 
  42   0.0000       0.424533        11.5521 
  43   0.0000       0.467964        12.7340 
  44   0.0000       0.473458        12.8834 
  45   0.0000       0.511371        13.9151 
  46   0.0000       0.514940        14.0122 
  47   0.0000       0.545963        14.8564 
  48   0.0000       0.571314        15.5463 
  49   0.0000       0.596235        16.2244 
  50   0.0000       0.600985        16.3536 
  51   0.0000       0.626545        17.0492 
  52   0.0000       0.642217        17.4756 
  53   0.0000       0.650380        17.6977 
  54   0.0000       0.657932        17.9033 
  55   0.0000       0.668044        18.1784 
  56   0.0000       0.689565        18.7640 
  57   0.0000       0.703133        19.1332 
  58   0.0000       0.709944        19.3186 
  59   0.0000       0.720731        19.6121 
  60   0.0000       0.735701        20.0194 
  61   0.0000       0.762759        20.7557 
  62   0.0000       0.801365        21.8063 
  63   0.0000       0.822934        22.3932 
  64   0.0000       0.843268        22.9465 
  65   0.0000       0.859486        23.3878 
  66   0.0000       0.932382        25.3714 
  67   0.0000       0.958554        26.0836 
  68   0.0000       1.014636        27.6096 
  69   0.0000       1.038497        28.2589 
  70   0.0000       1.085317        29.5330 
  71   0.0000       1.116390        30.3785 
  72   0.0000       1.181400        32.1475 
  73   0.0000       1.189040        32.3554 
  74   0.0000       1.222126        33.2557 
  75   0.0000       1.242382        33.8069 
  76   0.0000       1.298913        35.3452 
  77   0.0000       1.310464        35.6595 
  78   0.0000       1.373811        37.3833 
  79   0.0000       1.452528        39.5253 
  80   0.0000       1.511217        41.1223 
  81   0.0000       1.547058        42.0976 
  82   0.0000       1.568906        42.6921 
  83   0.0000       1.600070        43.5401 
  84   0.0000       1.635701        44.5097 
  85   0.0000       1.668505        45.4023 
  86   0.0000       1.681956        45.7684 
  87   0.0000       1.708912        46.5019 
  88   0.0000       1.744211        47.4624 
  89   0.0000       1.784572        48.5607 
  90   0.0000       1.816438        49.4278 
  91   0.0000       1.839965        50.0680 
  92   0.0000       1.855748        50.4975 
  93   0.0000       1.875524        51.0356 
  94   0.0000       1.890144        51.4334 
  95   0.0000       1.909157        51.9508 
  96   0.0000       1.934855        52.6501 
  97   0.0000       1.970881        53.6304 
  98   0.0000       1.982586        53.9489 
  99   0.0000       2.043776        55.6140 
 100   0.0000       2.104215        57.2586 
 101   0.0000       2.117000        57.6065 
 102   0.0000       2.128270        57.9132 
 103   0.0000       2.149811        58.4993 
 104   0.0000       2.215238        60.2797 
 105   0.0000       2.235933        60.8428 
 106   0.0000       2.286389        62.2158 
 107   0.0000       2.317734        63.0687 
 108   0.0000       2.364494        64.3411 
 109   0.0000       2.461903        66.9918 
 110   0.0000       2.486166        67.6520 
 111   0.0000       2.523153        68.6585 
 112   0.0000       2.526314        68.7445 
 113   0.0000       2.556873        69.5761 
 114   0.0000       2.565369        69.8072 
 115   0.0000       2.661003        72.4096 
 116   0.0000       2.715664        73.8970 
 117   0.0000       2.721630        74.0593 
 118   0.0000       2.750318        74.8400 
 119   0.0000       2.791999        75.9742 
 120   0.0000       2.852493        77.6203 
 121   0.0000       2.857479        77.7560 
 122   0.0000       2.928351        79.6845 
 123   0.0000       2.962599        80.6164 
 124   0.0000       2.987941        81.3060 
 125   0.0000       3.090556        84.0983 
 126   0.0000       3.096089        84.2489 
 127   0.0000       3.164658        86.1147 
 128   0.0000       3.232588        87.9632 
 129   0.0000       3.328518        90.5736 
 130   0.0000       3.456558        94.0577 
 131   0.0000       3.509308        95.4931 
 132   0.0000       3.747159       101.9654 

                    ********************************
                    * MULLIKEN POPULATION ANALYSIS *
                    ********************************

--------------------------------------------
MULLIKEN ATOMIC CHARGES AND SPIN POPULATIONS
--------------------------------------------
   0 O :   -0.218223    0.108456
   1 O :   -0.237800   -0.034769
   2 C :    0.053060   -0.043038
   3 C :   -0.034927    0.626609
   4 C :    0.009572   -0.289090
   5 C :   -0.101006    0.683057
   6 C :    0.097643   -0.064805
   7 H :    0.189784   -0.002685
   8 H :    0.029898    0.013115
   9 H :    0.043845   -0.030740
  10 H :    0.027772    0.009745
  11 H :    0.025749   -0.033849
  12 H :    0.049257    0.039322
  13 H :    0.065375    0.018670
Sum of atomic charges         :   -0.0000000
Sum of atomic spin populations:    1.0000000

-----------------------------------------------------
MULLIKEN REDUCED ORBITAL CHARGES AND SPIN POPULATIONS
-----------------------------------------------------
CHARGE
  0 O s       :     3.830083  s :     3.830083
      pz      :     1.391470  p :     4.378145
      px      :     1.341016
      py      :     1.645659
      dz2     :     0.003974  d :     0.009995
      dxz     :     0.001486
      dyz     :     0.002011
      dx2y2   :     0.001046
      dxy     :     0.001478
  1 O s       :     3.868035  s :     3.868035
      pz      :     1.450991  p :     4.352436
      px      :     1.269927
      py      :     1.631518
      dz2     :     0.005752  d :     0.017329
      dxz     :     0.003782
      dyz     :     0.003383
      dx2y2   :     0.001538
      dxy     :     0.002874
  2 C s       :     3.073326  s :     3.073326
      pz      :     0.820186  p :     2.788184
      px      :     0.980298
      py      :     0.987700
      dz2     :     0.018550  d :     0.085430
      dxz     :     0.020967
      dyz     :     0.023370
      dx2y2   :     0.009073
      dxy     :     0.013469
  3 C s       :     3.217335  s :     3.217335
      pz      :     0.992197  p :     2.783373
      px      :     0.934321
      py      :     0.856855
      dz2     :     0.002655  d :     0.034218
      dxz     :     0.005605
      dyz     :     0.005102
      dx2y2   :     0.009829
      dxy     :     0.011027
  4 C s       :     3.170243  s :     3.170243
      pz      :     0.970791  p :     2.780410
      px      :     0.853163
      py      :     0.956456
      dz2     :     0.004462  d :     0.039775
      dxz     :     0.006114
      dyz     :     0.006405
      dx2y2   :     0.011708
      dxy     :     0.011087
  5 C s       :     3.221725  s :     3.221725
      pz      :     0.940623  p :     2.841116
      px      :     0.975190
      py      :     0.925304
      dz2     :     0.005158  d :     0.038165
      dxz     :     0.005472
      dyz     :     0.005021
      dx2y2   :     0.009994
      dxy     :     0.012521
  6 C s       :     2.923701  s :     2.923701
      pz      :     0.979527  p :     2.942658
      px      :     0.949515
      py      :     1.013616
      dz2     :     0.008785  d :     0.035998
      dxz     :     0.005976
      dyz     :     0.004771
      dx2y2   :     0.008730
      dxy     :     0.007736
  7 H s       :     0.743693  s :     0.743693
      pz      :     0.033941  p :     0.066523
      px      :     0.013027
      py      :     0.019555
  8 H s       :     0.949416  s :     0.949416
      pz      :     0.005895  p :     0.020686
      px      :     0.008518
      py      :     0.006273
  9 H s       :     0.931940  s :     0.931940
      pz      :     0.007299  p :     0.024215
      px      :     0.003165
      py      :     0.013750
 10 H s       :     0.948750  s :     0.948750
      pz      :     0.005020  p :     0.023478
      px      :     0.014185
      py      :     0.004272
 11 H s       :     0.950774  s :     0.950774
      pz      :     0.005084  p :     0.023476
      px      :     0.008399
      py      :     0.009994
 12 H s       :     0.927284  s :     0.927284
      pz      :     0.014445  p :     0.023459
      px      :     0.004746
      py      :     0.004268
 13 H s       :     0.910280  s :     0.910280
      pz      :     0.006253  p :     0.024346
      px      :     0.007489
      py      :     0.010604

SPIN
  0 O s       :     0.000242  s :     0.000242
      pz      :     0.010701  p :     0.108218
      px      :     0.050829
      py      :     0.046687
      dz2     :     0.000040  d :    -0.000004
      dxz     :    -0.000004
      dyz     :    -0.000023
      dx2y2   :    -0.000018
      dxy     :     0.000002
  1 O s       :     0.003946  s :     0.003946
      pz      :     0.006033  p :    -0.039164
      px      :    -0.014797
      py      :    -0.030400
      dz2     :     0.000169  d :     0.000450
      dxz     :    -0.000020
      dyz     :     0.000028
      dx2y2   :     0.000042
      dxy     :     0.000232
  2 C s       :    -0.015867  s :    -0.015867
      pz      :    -0.006736  p :    -0.030623
      px      :    -0.013051
      py      :    -0.010837
      dz2     :    -0.000417  d :     0.003452
      dxz     :     0.002855
      dyz     :     0.000725
      dx2y2   :     0.000034
      dxy     :     0.000255
  3 C s       :     0.091065  s :     0.091065
      pz      :     0.421094  p :     0.538261
      px      :     0.022532
      py      :     0.094634
      dz2     :    -0.000847  d :    -0.002717
      dxz     :    -0.000499
      dyz     :    -0.001043
      dx2y2   :    -0.000101
      dxy     :    -0.000227
  4 C s       :    -0.052465  s :    -0.052465
      pz      :    -0.156913  p :    -0.245092
      px      :    -0.025892
      py      :    -0.062287
      dz2     :     0.002357  d :     0.008466
      dxz     :     0.001227
      dyz     :     0.003713
      dx2y2   :     0.001007
      dxy     :     0.000163
  5 C s       :     0.090922  s :     0.090922
      pz      :     0.455187  p :     0.594355
      px      :     0.036256
      py      :     0.102912
      dz2     :    -0.000986  d :    -0.002219
      dxz     :    -0.000019
      dyz     :    -0.001029
      dx2y2   :    -0.000196
      dxy     :     0.000011
  6 C s       :    -0.020194  s :    -0.020194
      pz      :    -0.013836  p :    -0.049082
      px      :    -0.027318
      py      :    -0.007928
      dz2     :     0.001635  d :     0.004471
      dxz     :     0.002272
      dyz     :     0.000018
      dx2y2   :    -0.000004
      dxy     :     0.000550
  7 H s       :    -0.003570  s :    -0.003570
      pz      :     0.000088  p :     0.000885
      px      :     0.000407
      py      :     0.000390
  8 H s       :     0.013102  s :     0.013102
      pz      :     0.000031  p :     0.000014
      px      :    -0.000150
      py      :     0.000133
  9 H s       :    -0.034004  s :    -0.034004
      pz      :     0.002584  p :     0.003264
      px      :    -0.000077
      py      :     0.000757
 10 H s       :     0.010712  s :     0.010712
      pz      :    -0.000733  p :    -0.000967
      px      :    -0.000086
      py      :    -0.000148
 11 H s       :    -0.037356  s :    -0.037356
      pz      :     0.002730  p :     0.003507
      px      :     0.000140
      py      :     0.000637
 12 H s       :     0.039608  s :     0.039608
      pz      :    -0.000236  p :    -0.000286
      px      :    -0.000083
      py      :     0.000034
 13 H s       :     0.018832  s :     0.018832
      pz      :    -0.000046  p :    -0.000161
      px      :    -0.000152
      py      :     0.000036


                     *******************************
                     * LOEWDIN POPULATION ANALYSIS *
                     *******************************

-------------------------------------------
LOEWDIN ATOMIC CHARGES AND SPIN POPULATIONS
-------------------------------------------
   0 O :   -0.106979    0.097943
   1 O :   -0.051461   -0.020331
   2 C :    0.005347    0.002319
   3 C :   -0.016453    0.482174
   4 C :   -0.037436   -0.149597
   5 C :    0.006993    0.538120
   6 C :   -0.062598   -0.007974
   7 H :    0.071400    0.000844
   8 H :    0.013530    0.011278
   9 H :    0.033041   -0.001313
  10 H :    0.036566    0.000369
  11 H :    0.020990   -0.001399
  12 H :    0.041590    0.031665
  13 H :    0.045471    0.015903

----------------------------------------------------
LOEWDIN REDUCED ORBITAL CHARGES AND SPIN POPULATIONS
----------------------------------------------------
CHARGE
  0 O s       :     3.629807  s :     3.629807
      pz      :     1.483278  p :     4.460197
      px      :     1.340026
      py      :     1.636893
      dz2     :     0.007730  d :     0.016975
      dxz     :     0.001686
      dyz     :     0.003482
      dx2y2   :     0.001657
      dxy     :     0.002421
  1 O s       :     3.601706  s :     3.601706
      pz      :     1.519531  p :     4.419918
      px      :     1.273903
      py      :     1.626484
      dz2     :     0.009628  d :     0.029837
      dxz     :     0.006603
      dyz     :     0.005586
      dx2y2   :     0.002817
      dxy     :     0.005203
  2 C s       :     2.831216  s :     2.831216
      pz      :     0.927693  p :     2.965105
      px      :     1.012163
      py      :     1.025248
      dz2     :     0.041065  d :     0.198332
      dxz     :     0.048674
      dyz     :     0.056859
      dx2y2   :     0.017371
      dxy     :     0.034363
  3 C s       :     2.888735  s :     2.888735
      pz      :     0.986610  p :     3.041923
      px      :     1.033637
      py      :     1.021676
      dz2     :     0.006301  d :     0.085795
      dxz     :     0.012922
      dyz     :     0.009994
      dx2y2   :     0.025100
      dxy     :     0.031477
  4 C s       :     2.861401  s :     2.861401
      pz      :     0.972461  p :     3.072184
      px      :     1.048844
      py      :     1.050879
      dz2     :     0.010531  d :     0.103851
      dxz     :     0.013072
      dyz     :     0.016233
      dx2y2   :     0.032838
      dxy     :     0.031177
  5 C s       :     2.880436  s :     2.880436
      pz      :     0.947671  p :     3.018909
      px      :     1.036157
      py      :     1.035081
      dz2     :     0.010446  d :     0.093662
      dxz     :     0.012255
      dyz     :     0.011524
      dx2y2   :     0.028107
      dxy     :     0.031329
  6 C s       :     2.830478  s :     2.830478
      pz      :     1.047595  p :     3.136143
      px      :     1.043093
      py      :     1.045455
      dz2     :     0.024531  d :     0.095977
      dxz     :     0.014298
      dyz     :     0.012656
      dx2y2   :     0.024733
      dxy     :     0.019760
  7 H s       :     0.748611  s :     0.748611
      pz      :     0.093073  p :     0.179989
      px      :     0.035733
      py      :     0.051182
  8 H s       :     0.920202  s :     0.920202
      pz      :     0.019376  p :     0.066268
      px      :     0.026306
      py      :     0.020587
  9 H s       :     0.893071  s :     0.893071
      pz      :     0.022717  p :     0.073888
      px      :     0.011729
      py      :     0.039442
 10 H s       :     0.896073  s :     0.896073
      pz      :     0.014902  p :     0.067361
      px      :     0.039020
      py      :     0.013439
 11 H s       :     0.907327  s :     0.907327
      pz      :     0.016931  p :     0.071683
      px      :     0.026067
      py      :     0.028685
 12 H s       :     0.891131  s :     0.891131
      pz      :     0.040234  p :     0.067279
      px      :     0.013777
      py      :     0.013268
 13 H s       :     0.884217  s :     0.884217
      pz      :     0.016838  p :     0.070312
      px      :     0.021182
      py      :     0.032293

SPIN
  0 O s       :     0.000112  s :     0.000112
      pz      :     0.009016  p :     0.097888
      px      :     0.045710
      py      :     0.043162
      dz2     :     0.000019  d :    -0.000056
      dxz     :    -0.000015
      dyz     :    -0.000029
      dx2y2   :    -0.000043
      dxy     :     0.000013
  1 O s       :     0.012463  s :     0.012463
      pz      :     0.005489  p :    -0.033568
      px      :    -0.011326
      py      :    -0.027731
      dz2     :     0.000110  d :     0.000774
      dxz     :    -0.000031
      dyz     :     0.000003
      dx2y2   :     0.000098
      dxy     :     0.000594
  2 C s       :    -0.001474  s :    -0.001474
      pz      :     0.001445  p :    -0.005167
      px      :    -0.002749
      py      :    -0.003863
      dz2     :    -0.000778  d :     0.008960
      dxz     :     0.006975
      dyz     :     0.001558
      dx2y2   :     0.000147
      dxy     :     0.001058
  3 C s       :     0.017727  s :     0.017727
      pz      :     0.380704  p :     0.469668
      px      :     0.011066
      py      :     0.077898
      dz2     :    -0.000877  d :    -0.005222
      dxz     :    -0.001409
      dyz     :    -0.001325
      dx2y2   :    -0.000675
      dxy     :    -0.000936
  4 C s       :    -0.009186  s :    -0.009186
      pz      :    -0.119918  p :    -0.161661
      px      :    -0.008579
      py      :    -0.033164
      dz2     :     0.005287  d :     0.021249
      dxz     :     0.003377
      dyz     :     0.008691
      dx2y2   :     0.002796
      dxy     :     0.001099
  5 C s       :     0.019594  s :     0.019594
      pz      :     0.413539  p :     0.523239
      px      :     0.024968
      py      :     0.084732
      dz2     :    -0.001474  d :    -0.004712
      dxz     :    -0.000069
      dyz     :    -0.001703
      dx2y2   :    -0.000850
      dxy     :    -0.000615
  6 C s       :    -0.003080  s :    -0.003080
      pz      :    -0.003280  p :    -0.016829
      px      :    -0.010456
      py      :    -0.003092
      dz2     :     0.004600  d :     0.011934
      dxz     :     0.005356
      dyz     :     0.000056
      dx2y2   :     0.000426
      dxy     :     0.001495
  7 H s       :    -0.002356  s :    -0.002356
      pz      :     0.000476  p :     0.003200
      px      :     0.001366
      py      :     0.001358
  8 H s       :     0.011519  s :     0.011519
      pz      :    -0.000075  p :    -0.000241
      px      :    -0.000238
      py      :     0.000073
  9 H s       :    -0.015466  s :    -0.015466
      pz      :     0.010129  p :     0.014153
      px      :     0.000249
      py      :     0.003774
 10 H s       :     0.004728  s :     0.004728
      pz      :    -0.002856  p :    -0.004359
      px      :    -0.000695
      py      :    -0.000808
 11 H s       :    -0.016514  s :    -0.016514
      pz      :     0.010579  p :     0.015116
      px      :     0.001340
      py      :     0.003198
 12 H s       :     0.032586  s :     0.032586
      pz      :    -0.000615  p :    -0.000922
      px      :    -0.000258
      py      :    -0.000048
 13 H s       :     0.016616  s :     0.016616
      pz      :    -0.000186  p :    -0.000714
      px      :    -0.000310
      py      :    -0.000218


                      *****************************
                      * MAYER POPULATION ANALYSIS *
                      *****************************

  NA   - Mulliken gross atomic population
  ZA   - Total nuclear charge
  QA   - Mulliken gross atomic charge
  VA   - Mayer's total valence
  BVA  - Mayer's bonded valence
  FA   - Mayer's free valence

  ATOM       NA         ZA         QA         VA         BVA        FA
  0 O      8.2182     8.0000    -0.2182     2.0232     2.0106     0.0125
  1 O      8.2378     8.0000    -0.2378     1.9595     1.9557     0.0038
  2 C      5.9469     6.0000     0.0531     4.0498     4.0482     0.0016
  3 C      6.0349     6.0000    -0.0349     3.8312     3.5698     0.2614
  4 C      5.9904     6.0000     0.0096     3.8554     3.8188     0.0366
  5 C      6.1010     6.0000    -0.1010     3.9190     3.6083     0.3107
  6 C      5.9024     6.0000     0.0976     3.8155     3.8137     0.0018
  7 H      0.8102     1.0000     0.1898     0.9996     0.9996     0.0000
  8 H      0.9701     1.0000     0.0299     0.9832     0.9830     0.0002
  9 H      0.9562     1.0000     0.0438     0.9934     0.9923     0.0012
 10 H      0.9722     1.0000     0.0278     0.9851     0.9850     0.0001
 11 H      0.9743     1.0000     0.0257     0.9862     0.9848     0.0014
 12 H      0.9507     1.0000     0.0493     0.9786     0.9770     0.0016
 13 H      0.9346     1.0000     0.0654     1.0243     1.0240     0.0004

  Mayer bond orders larger than 0.100000
B(  0-O ,  1-O ) :   0.8561 B(  0-O ,  7-H ) :   0.9713 B(  1-O ,  2-C ) :   0.9835 
B(  2-C ,  3-C ) :   0.9965 B(  2-C ,  6-C ) :   1.0408 B(  2-C ,  8-H ) :   0.9171 
B(  3-C ,  4-C ) :   1.3723 B(  3-C ,  5-C ) :   0.1017 B(  3-C ,  9-H ) :   0.9954 
B(  4-C ,  5-C ) :   1.4090 B(  4-C , 10-H ) :   0.9967 B(  5-C ,  6-C ) :   1.0190 
B(  5-C , 11-H ) :   0.9802 B(  6-C , 12-H ) :   0.9100 B(  6-C , 13-H ) :   0.9146 



------------------
HIRSHFELD ANALYSIS
------------------

Total integrated alpha density =     27.000001416
Total integrated beta density  =     26.000006153

  ATOM     CHARGE      SPIN    
   0 O   -0.188989    0.094934
   1 O   -0.113120   -0.010571
   2 C    0.050494    0.026125
   3 C   -0.021817    0.376244
   4 C   -0.040856   -0.045997
   5 C   -0.010611    0.422053
   6 C   -0.056610    0.029771
   7 H    0.162520    0.002715
   8 H    0.024660    0.012819
   9 H    0.046085    0.024708
  10 H    0.046871   -0.004923
  11 H    0.029811    0.026554
  12 H    0.035334    0.029976
  13 H    0.036221    0.015587

  TOTAL  -0.000008    0.999995

-------
TIMINGS
-------

Total SCF time: 0 days 0 hours 0 min 10 sec 

Total time                  ....      10.192 sec
Sum of individual times     ....      10.044 sec  ( 98.5%)

Fock matrix formation       ....       9.117 sec  ( 89.5%)
  Split-RI-J                ....       0.782 sec  (  8.6% of F)
  Chain of spheres X        ....       6.045 sec  ( 66.3% of F)
  XC integration            ....       2.201 sec  ( 24.1% of F)
    Basis function eval.    ....       0.587 sec  ( 26.6% of XC)
    Density eval.           ....       0.550 sec  ( 25.0% of XC)
    XC-Functional eval.     ....       0.203 sec  (  9.2% of XC)
    XC-Potential eval.      ....       0.645 sec  ( 29.3% of XC)
Diagonalization             ....       0.162 sec  (  1.6%)
Density matrix formation    ....       0.009 sec  (  0.1%)
Population analysis         ....       0.139 sec  (  1.4%)
Initial guess               ....       0.037 sec  (  0.4%)
Orbital Transformation      ....       0.000 sec  (  0.0%)
Orbital Orthonormalization  ....       0.000 sec  (  0.0%)
DIIS solution               ....       0.111 sec  (  1.1%)
Grid generation             ....       0.468 sec  (  4.6%)

Maximum memory used throughout the entire SCF-calculation: 50.8 MB


-------------------------------------------------------------------------------
                          DFT DISPERSION CORRECTION                            
                                                                               
                              DFTD3 V3.1  Rev 1                                
                          USING Becke-Johnson damping                          
-------------------------------------------------------------------------------
The PBE0 functional is recognized
Active option DFTDOPT                   ...         4   

molecular C6(AA) [au] = 1779.043988 


            DFT-D V3
 parameters
 s6 scaling factor         :     1.0000 
 a1 scaling factor         :     0.4145 
 s8 scaling factor         :     1.2177 
 a2 scaling factor         :     4.8593 
 ad hoc parameters k1-k3   :    16.0000     1.3333    -4.0000 

 Edisp/kcal,au: -6.367644884327  -0.010147486960 
 E6   /kcal   :  -4.045778342 
 E8   /kcal   :  -2.321866542 
 % E8         :  36.463505498 

-------------------------   ----------------
Dispersion correction           -0.010147487
-------------------------   ----------------


-------------------------   --------------------
FINAL SINGLE POINT ENERGY      -344.360895063367
-------------------------   --------------------



           ************************************************************
           *        Program running with 8 parallel MPI-processes     *
           *              working on a common directory               *
           ************************************************************
------------------------------------------------------------------------------
                         ORCA SCF GRADIENT CALCULATION
------------------------------------------------------------------------------

 ... reading COSX grid (gridx3)
Gradient of the Kohn-Sham DFT energy:
Kohn-Sham wavefunction type      ... UKS
Hartree-Fock exchange scaling    ...    0.250
Number of operators              ...    2
Number of atoms                  ...   14
Basis set dimensions             ...  133
Integral neglect threshold       ... 2.5e-11
Integral primitive cutoff        ... 2.5e-12
SHARK Integral package           ... ON

Nuc. rep. gradient       (SHARK) ... done (  0.0 sec)
HCore & Overlap gradient (SHARK) ... done (  0.0 sec)
RI-J gradient            (SHARK) ... done (  0.1 sec)
COSX-gradient                    ... done (  0.9 sec)
Exchange-correlation gradient    ... done
Dispersion correction            ... done

------------------
CARTESIAN GRADIENT
------------------

   1   O   :   -0.043239096   -0.026310405   -0.015171128
   2   O   :    0.077764657    0.028240447   -0.049922738
   3   C   :    0.022956763   -0.021061647    0.032599819
   4   C   :    0.010669874   -0.017544682   -0.001640978
   5   C   :   -0.022573152    0.007228951   -0.002311655
   6   C   :   -0.046159547    0.027894230    0.010696502
   7   C   :   -0.000693002    0.005373021    0.024194015
   8   H   :   -0.000671016   -0.001335998    0.001487125
   9   H   :    0.004860365   -0.002637539   -0.002427224
  10   H   :    0.002248519    0.000665155    0.001090302
  11   H   :    0.000447395    0.001834387    0.000827272
  12   H   :   -0.002152297    0.000235217   -0.000722240
  13   H   :   -0.003977721    0.000757259    0.001599970
  14   H   :    0.000585374   -0.003212991   -0.000224901

Difference to translation invariance:
           :    0.0000671155    0.0001254032    0.0000741435

Difference to rotation invariance:
           :    0.0001107240    0.0001129260    0.0000733813

Norm of the cartesian gradient     ...    0.1373996542
RMS gradient                       ...    0.0212012269
MAX gradient                       ...    0.0777646571

-------
TIMINGS
-------

Total SCF gradient time            ...        1.719 sec

One electron gradient       ....       0.017 sec  (  1.0%)
RI-J Coulomb gradient       ....       0.125 sec  (  7.3%)
COSX gradient               ....       0.884 sec  ( 51.4%)
XC gradient                 ....       0.479 sec  ( 27.9%)

Maximum memory used throughout the entire SCFGRAD-calculation: 38.8 MB
------------------------------------------------------------------------------
                         ORCA GEOMETRY RELAXATION STEP
------------------------------------------------------------------------------

Reading the OPT-File                    .... done
Getting information on internals        .... done
Copying old internal coords+grads       .... done
Making the new internal coordinates     .... (new redundants).... done
Validating the new internal coordinates .... (new redundants).... done
Calculating the B-matrix                .... done
Calculating the G,G- and P matrices     .... done
Transforming gradient to internals      .... done
Projecting the internal gradient        .... done
Number of atoms                         ....  14
Number of internal coordinates          ....  71
Current Energy                          ....  -344.360895063 Eh
Current gradient norm                   ....     0.137399654 Eh/bohr
Maximum allowed component of the step   ....  0.300
Current trust radius                    ....  0.300
[...]
      pz      :     0.936782  p :     2.820713
      px      :     0.966090
      py      :     0.917841
      dz2     :     0.005091  d :     0.034844
      dxz     :     0.004691
      dyz     :     0.004972
      dx2y2   :     0.009050
      dxy     :     0.011041
  6 C s       :     2.979347  s :     2.979347
      pz      :     0.960682  p :     2.919189
      px      :     0.938648
      py      :     1.019859
      dz2     :     0.008919  d :     0.034191
      dxz     :     0.005533
      dyz     :     0.004264
      dx2y2   :     0.007296
      dxy     :     0.008177
  7 H s       :     0.743304  s :     0.743304
      pz      :     0.034159  p :     0.066909
      px      :     0.013265
      py      :     0.019485
  8 H s       :     0.937438  s :     0.937438
      pz      :     0.004894  p :     0.020579
      px      :     0.009831
      py      :     0.005853
  9 H s       :     0.928608  s :     0.928608
      pz      :     0.006662  p :     0.023982
      px      :     0.003117
      py      :     0.014203
 10 H s       :     0.945033  s :     0.945033
      pz      :     0.005710  p :     0.023481
      px      :     0.013651
      py      :     0.004120
 11 H s       :     0.940231  s :     0.940231
      pz      :     0.004759  p :     0.023698
      px      :     0.008100
      py      :     0.010838
 12 H s       :     0.917936  s :     0.917936
      pz      :     0.014259  p :     0.023139
      px      :     0.004445
      py      :     0.004434
 13 H s       :     0.915126  s :     0.915126
      pz      :     0.005082  p :     0.023747
      px      :     0.007962
      py      :     0.010704

SPIN
  0 O s       :     0.000423  s :     0.000423
      pz      :     0.005520  p :     0.119641
      px      :     0.064222
      py      :     0.049899
      dz2     :     0.000007  d :    -0.000015
      dxz     :     0.000027
      dyz     :    -0.000006
      dx2y2   :    -0.000010
      dxy     :    -0.000034
  1 O s       :     0.003994  s :     0.003994
      pz      :     0.012937  p :    -0.045173
      px      :    -0.024526
      py      :    -0.033584
      dz2     :     0.000194  d :     0.000552
      dxz     :    -0.000009
      dyz     :     0.000016
      dx2y2   :     0.000031
      dxy     :     0.000320
  2 C s       :    -0.013174  s :    -0.013174
      pz      :    -0.005875  p :    -0.030437
      px      :    -0.016027
      py      :    -0.008534
      dz2     :    -0.000374  d :     0.003696
      dxz     :     0.002697
      dyz     :     0.001253
      dx2y2   :     0.000040
      dxy     :     0.000080
  3 C s       :     0.091448  s :     0.091448
      pz      :     0.464294  p :     0.570444
      px      :     0.034100
      py      :     0.072050
      dz2     :    -0.001010  d :    -0.002739
      dxz     :    -0.000470
      dyz     :    -0.000908
      dx2y2   :    -0.000161
      dxy     :    -0.000191
  4 C s       :    -0.054921  s :    -0.054921
      pz      :    -0.169775  p :    -0.262508
      px      :    -0.034221
      py      :    -0.058511
      dz2     :     0.001414  d :     0.008089
      dxz     :     0.001329
      dyz     :     0.004211
      dx2y2   :     0.000801
      dxy     :     0.000335
  5 C s       :     0.089049  s :     0.089049
      pz      :     0.437798  p :     0.592856
      px      :     0.069954
      py      :     0.085105
      dz2     :    -0.000840  d :    -0.002342
      dxz     :    -0.000278
      dyz     :    -0.000913
      dx2y2   :    -0.000190
      dxy     :    -0.000120
  6 C s       :    -0.017439  s :    -0.017439
      pz      :    -0.012267  p :    -0.043007
      px      :    -0.024882
      py      :    -0.005858
      dz2     :     0.001838  d :     0.003574
      dxz     :     0.001107
      dyz     :     0.000191
      dx2y2   :     0.000181
      dxy     :     0.000257
  7 H s       :    -0.003721  s :    -0.003721
      pz      :     0.000055  p :     0.001031
      px      :     0.000555
      py      :     0.000421
  8 H s       :     0.005914  s :     0.005914
      pz      :    -0.000005  p :    -0.000033
      px      :    -0.000108
      py      :     0.000080
  9 H s       :    -0.034964  s :    -0.034964
      pz      :     0.002687  p :     0.003310
      px      :    -0.000029
      py      :     0.000652
 10 H s       :     0.011964  s :     0.011964
      pz      :    -0.000810  p :    -0.001060
      px      :    -0.000129
      py      :    -0.000122
 11 H s       :    -0.037045  s :    -0.037045
      pz      :     0.002629  p :     0.003539
      px      :     0.000350
      py      :     0.000560
 12 H s       :     0.031619  s :     0.031619
      pz      :    -0.000240  p :    -0.000192
      px      :     0.000016
      py      :     0.000032
 13 H s       :     0.007696  s :     0.007696
      pz      :    -0.000050  p :    -0.000070
      px      :    -0.000085
      py      :     0.000065


                     *******************************
                     * LOEWDIN POPULATION ANALYSIS *
                     *******************************

-------------------------------------------
LOEWDIN ATOMIC CHARGES AND SPIN POPULATIONS
-------------------------------------------
   0 O :   -0.110789    0.108584
   1 O :   -0.088390   -0.024616
   2 C :    0.037727    0.002907
   3 C :   -0.015497    0.512963
   4 C :   -0.037038   -0.167286
   5 C :    0.006293    0.539188
   6 C :   -0.055368   -0.007725
   7 H :    0.069775    0.001170
   8 H :    0.019226    0.004991
   9 H :    0.030406   -0.001135
  10 H :    0.035088    0.000677
  11 H :    0.025955   -0.001525
  12 H :    0.042838    0.024923
  13 H :    0.039775    0.006884

----------------------------------------------------
LOEWDIN REDUCED ORBITAL CHARGES AND SPIN POPULATIONS
----------------------------------------------------
CHARGE
  0 O s       :     3.630957  s :     3.630957
      pz      :     1.503509  p :     4.462747
      px      :     1.372453
      py      :     1.586785
      dz2     :     0.007769  d :     0.017084
      dxz     :     0.001062
      dyz     :     0.003769
      dx2y2   :     0.001742
      dxy     :     0.002743
  1 O s       :     3.643342  s :     3.643342
      pz      :     1.505447  p :     4.420123
      px      :     1.305487
      py      :     1.609189
      dz2     :     0.008870  d :     0.024925
      dxz     :     0.004603
      dyz     :     0.004453
      dx2y2   :     0.002247
      dxy     :     0.004753
  2 C s       :     2.856407  s :     2.856407
      pz      :     0.892270  p :     2.935739
      px      :     1.024153
      py      :     1.019316
      dz2     :     0.039948  d :     0.170127
      dxz     :     0.040211
      dyz     :     0.044773
      dx2y2   :     0.014445
      dxy     :     0.030749
  3 C s       :     2.902200  s :     2.902200
      pz      :     0.976614  p :     3.032615
      px      :     1.023965
      py      :     1.032037
      dz2     :     0.005702  d :     0.080681
      dxz     :     0.010525
      dyz     :     0.009423
      dx2y2   :     0.024663
      dxy     :     0.030367
  4 C s       :     2.870554  s :     2.870554
      pz      :     0.973021  p :     3.068673
      px      :     1.043514
      py      :     1.052138
      dz2     :     0.008539  d :     0.097811
      dxz     :     0.011873
      dyz     :     0.016817
      dx2y2   :     0.030170
      dxy     :     0.030413
  5 C s       :     2.893475  s :     2.893475
      pz      :     0.949300  p :     3.015193
      px      :     1.022700
      py      :     1.043192
      dz2     :     0.010189  d :     0.085040
      dxz     :     0.010599
      dyz     :     0.011474
      dx2y2   :     0.025715
      dxy     :     0.027063
  6 C s       :     2.845493  s :     2.845493
      pz      :     1.043456  p :     3.121026
      px      :     1.027661
      py      :     1.049909
      dz2     :     0.024010  d :     0.088849
      dxz     :     0.013494
      dyz     :     0.010857
      dx2y2   :     0.019924
      dxy     :     0.020565
  7 H s       :     0.749120  s :     0.749120
      pz      :     0.093737  p :     0.181104
      px      :     0.036232
      py      :     0.051135
  8 H s       :     0.914369  s :     0.914369
      pz      :     0.016773  p :     0.066405
      px      :     0.029826
      py      :     0.019806
  9 H s       :     0.895473  s :     0.895473
      pz      :     0.021390  p :     0.074121
      px      :     0.011738
      py      :     0.040993
 10 H s       :     0.896868  s :     0.896868
      pz      :     0.016727  p :     0.068044
      px      :     0.038212
      py      :     0.013104
 11 H s       :     0.901750  s :     0.901750
      pz      :     0.015763  p :     0.072295
      px      :     0.025631
      py      :     0.030901
 12 H s       :     0.889618  s :     0.889618
      pz      :     0.040818  p :     0.067544
      px      :     0.012863
      py      :     0.013864
 13 H s       :     0.890235  s :     0.890235
      pz      :     0.014083  p :     0.069990
      px      :     0.022985
      py      :     0.032923

SPIN
  0 O s       :     0.000374  s :     0.000374
      pz      :     0.004104  p :     0.108336
      px      :     0.058178
      py      :     0.046055
      dz2     :    -0.000017  d :    -0.000126
      dxz     :     0.000001
      dyz     :    -0.000026
      dx2y2   :    -0.000037
      dxy     :    -0.000047
  1 O s       :     0.012949  s :     0.012949
      pz      :     0.011906  p :    -0.038557
      px      :    -0.020278
      py      :    -0.030186
      dz2     :     0.000135  d :     0.000992
      dxz     :    -0.000017
      dyz     :    -0.000005
      dx2y2   :     0.000086
      dxy     :     0.000792
  2 C s       :    -0.000613  s :    -0.000613
      pz      :     0.001285  p :    -0.005822
      px      :    -0.004322
      py      :    -0.002785
      dz2     :    -0.000460  d :     0.009342
      dxz     :     0.006299
      dyz     :     0.002735
      dx2y2   :     0.000158
      dxy     :     0.000611
  3 C s       :     0.019783  s :     0.019783
      pz      :     0.421754  p :     0.498398
      px      :     0.020838
      py      :     0.055806
      dz2     :    -0.001001  d :    -0.005218
      dxz     :    -0.001260
      dyz     :    -0.001221
      dx2y2   :    -0.000865
      dxy     :    -0.000871
  4 C s       :    -0.010061  s :    -0.010061
      pz      :    -0.131287  p :    -0.177266
      px      :    -0.015967
      py      :    -0.030011
      dz2     :     0.003050  d :     0.020041
      dxz     :     0.003347
      dyz     :     0.009814
      dx2y2   :     0.002336
      dxy     :     0.001492
  5 C s       :     0.020359  s :     0.020359
      pz      :     0.398858  p :     0.523763
      px      :     0.057684
      py      :     0.067221
      dz2     :    -0.001325  d :    -0.004935
      dxz     :    -0.000355
      dyz     :    -0.001674
      dx2y2   :    -0.000820
      dxy     :    -0.000760
  6 C s       :    -0.002555  s :    -0.002555
      pz      :    -0.002950  p :    -0.014417
      px      :    -0.009501
      py      :    -0.001965
      dz2     :     0.004842  d :     0.009247
      dxz     :     0.002551
      dyz     :     0.000450
      dx2y2   :     0.000754
      dxy     :     0.000651
  7 H s       :    -0.002484  s :    -0.002484
      pz      :     0.000362  p :     0.003654
      px      :     0.001785
      py      :     0.001507
  8 H s       :     0.005281  s :     0.005281
      pz      :    -0.000088  p :    -0.000290
      px      :    -0.000260
      py      :     0.000059
  9 H s       :    -0.015647  s :    -0.015647
      pz      :     0.010660  p :     0.014512
      px      :     0.000497
      py      :     0.003355
 10 H s       :     0.005431  s :     0.005431
      pz      :    -0.003142  p :    -0.004754
      px      :    -0.000892
      py      :    -0.000720
 11 H s       :    -0.016540  s :    -0.016540
      pz      :     0.010019  p :     0.015015
      px      :     0.002083
      py      :     0.002914
 12 H s       :     0.025590  s :     0.025590
      pz      :    -0.000518  p :    -0.000667
      px      :    -0.000130
      py      :    -0.000020
 13 H s       :     0.007246  s :     0.007246
      pz      :    -0.000168  p :    -0.000362
      px      :    -0.000187
      py      :    -0.000007


                      *****************************
                      * MAYER POPULATION ANALYSIS *
                      *****************************

  NA   - Mulliken gross atomic population
  ZA   - Total nuclear charge
  QA   - Mulliken gross atomic charge
  VA   - Mayer's total valence
  BVA  - Mayer's bonded valence
  FA   - Mayer's free valence

  ATOM       NA         ZA         QA         VA         BVA        FA
  0 O      8.2177     8.0000    -0.2177     2.0130     1.9985     0.0145
  1 O      8.2610     8.0000    -0.2610     1.9293     1.9242     0.0051
  2 C      5.9326     6.0000     0.0674     4.0053     4.0037     0.0016
  3 C      6.0414     6.0000    -0.0414     3.8265     3.5379     0.2887
  4 C      5.9932     6.0000     0.0068     3.8539     3.8112     0.0427
  5 C      6.0882     6.0000    -0.0882     3.9031     3.5970     0.3061
  6 C      5.9327     6.0000     0.0673     3.8192     3.8176     0.0016
  7 H      0.8102     1.0000     0.1898     1.0001     1.0001     0.0000
  8 H      0.9580     1.0000     0.0420     0.9861     0.9861     0.0000
  9 H      0.9526     1.0000     0.0474     0.9923     0.9910     0.0013
 10 H      0.9685     1.0000     0.0315     0.9856     0.9854     0.0001
 11 H      0.9639     1.0000     0.0361     0.9887     0.9873     0.0014
 12 H      0.9411     1.0000     0.0589     0.9765     0.9755     0.0010
 13 H      0.9389     1.0000     0.0611     1.0164     1.0164     0.0001

  Mayer bond orders larger than 0.100000
B(  0-O ,  1-O ) :   0.8681 B(  0-O ,  7-H ) :   0.9728 B(  1-O ,  2-C ) :   0.9487 
B(  2-C ,  3-C ) :   0.9979 B(  2-C ,  6-C ) :   1.0231 B(  2-C ,  8-H ) :   0.9419 
B(  3-C ,  4-C ) :   1.3531 B(  3-C ,  9-H ) :   0.9898 B(  4-C ,  5-C ) :   1.4282 
B(  4-C , 10-H ) :   0.9941 B(  5-C ,  6-C ) :   1.0039 B(  5-C , 11-H ) :   0.9821 
B(  6-C , 12-H ) :   0.9215 B(  6-C , 13-H ) :   0.9265 


------------------
HIRSHFELD ANALYSIS
------------------

Total integrated alpha density =     26.999999276
Total integrated beta density  =     26.000000324

  ATOM     CHARGE      SPIN    
   0 O   -0.196727    0.104789
   1 O   -0.122409   -0.013873
   2 C    0.056365    0.026896
   3 C   -0.021625    0.401522
   4 C   -0.041271   -0.060777
   5 C   -0.009604    0.423509
   6 C   -0.051876    0.027563
   7 H    0.161392    0.003200
   8 H    0.032859    0.006837
   9 H    0.043091    0.026257
  10 H    0.045288   -0.005517
  11 H    0.037556    0.026890
  12 H    0.034382    0.024817
  13 H    0.032579    0.007885

  TOTAL   0.000000    0.999999

-------
TIMINGS
-------

Total SCF time: 0 days 0 hours 0 min 6 sec 

Total time                  ....       6.403 sec
Sum of individual times     ....       6.271 sec  ( 97.9%)

Fock matrix formation       ....       5.538 sec  ( 86.5%)
  Split-RI-J                ....       0.485 sec  (  8.8% of F)
  Chain of spheres X        ....       3.922 sec  ( 70.8% of F)
  XC integration            ....       1.084 sec  ( 19.6% of F)
    Basis function eval.    ....       0.327 sec  ( 30.2% of XC)
    Density eval.           ....       0.291 sec  ( 26.8% of XC)
    XC-Functional eval.     ....       0.114 sec  ( 10.5% of XC)
    XC-Potential eval.      ....       0.234 sec  ( 21.6% of XC)
Diagonalization             ....       0.093 sec  (  1.5%)
Density matrix formation    ....       0.005 sec  (  0.1%)
Population analysis         ....       0.138 sec  (  2.2%)
Initial guess               ....       0.008 sec  (  0.1%)
Orbital Transformation      ....       0.000 sec  (  0.0%)
Orbital Orthonormalization  ....       0.004 sec  (  0.1%)
DIIS solution               ....       0.059 sec  (  0.9%)
Grid generation             ....       0.429 sec  (  6.7%)

Maximum memory used throughout the entire SCF-calculation: 50.7 MB


-------------------------------------------------------------------------------
                          DFT DISPERSION CORRECTION                            
                                                                               
                              DFTD3 V3.1  Rev 1                                
                          USING Becke-Johnson damping                          
-------------------------------------------------------------------------------
The PBE0 functional is recognized
Active option DFTDOPT                   ...         4   

molecular C6(AA) [au] = 1792.440152 


            DFT-D V3
 parameters
 s6 scaling factor         :     1.0000 
 a1 scaling factor         :     0.4145 
 s8 scaling factor         :     1.2177 
 a2 scaling factor         :     4.8593 
 ad hoc parameters k1-k3   :    16.0000     1.3333    -4.0000 

 Edisp/kcal,au: -6.352739904262  -0.010123734364 
 E6   /kcal   :  -4.034157213 
 E8   /kcal   :  -2.318582692 
 % E8         :  36.497365333 

-------------------------   ----------------
Dispersion correction           -0.010123734
-------------------------   ----------------


-------------------------   --------------------
FINAL SINGLE POINT ENERGY      -344.373746012840
-------------------------   --------------------

                                *** OPTIMIZATION RUN DONE ***

                            ***************************************
                            *     ORCA property calculations      *
                            ***************************************

                                    ---------------------
                                    Active property flags
                                    ---------------------
   (+) Dipole Moment


------------------------------------------------------------------------------
                       ORCA ELECTRIC PROPERTIES CALCULATION
------------------------------------------------------------------------------

Dipole Moment Calculation                       ... on
Quadrupole Moment Calculation                   ... off
Polarizability Calculation                      ... off
GBWName                                         ... path_opt1_orca.gbw
Electron density                                ... path_opt1_orca.scfp
The origin for moment calculation is the CENTER OF MASS  = (-0.382767,  0.051489  0.348391)

-------------
DIPOLE MOMENT
-------------
                                X             Y             Z
Electronic contribution:     -1.35126       0.54054       1.98997
Nuclear contribution   :      1.83716      -0.63208      -2.06183
                        -----------------------------------------
Total Dipole Moment    :      0.48589      -0.09153      -0.07186
                        -----------------------------------------
Magnitude (a.u.)       :      0.49963
Magnitude (Debye)      :      1.26996



--------------------
Rotational spectrum 
--------------------
 
Rotational constants in cm-1:     0.181930     0.071347     0.060924 
Rotational constants in MHz :  5454.120188  2138.935455  1826.455066 

 Dipole components along the rotational axes: 
x,y,z [a.u.] :    -0.454911    -0.137459     0.154250 
x,y,z [Debye]:    -1.156291    -0.349392     0.392072 

 

Timings for individual modules:

Sum of individual times         ...       81.188 sec (=   1.353 min)
GTO integral calculation        ...        3.270 sec (=   0.055 min)   4.0 %
SCF iterations                  ...       63.505 sec (=   1.058 min)  78.2 %
SCF Gradient evaluation         ...       14.209 sec (=   0.237 min)  17.5 %
Geometry relaxation             ...        0.204 sec (=   0.003 min)   0.3 %
                             ****ORCA TERMINATED NORMALLY****
TOTAL RUN TIME: 0 days 0 hours 1 minutes 23 seconds 711 msec
