
                                 *****************
                                 * O   R   C   A *
                                 *****************

                                            #,                                       
                                            ###                                      
                                            ####                                     
                                            #####                                    
                                            ######                                   
                                           ########,                                 
                                     ,,################,,,,,                         
                               ,,#################################,,                 
                          ,,##########################################,,             
                       ,#########################################, ''#####,          
                    ,#############################################,,   '####,        
                  ,##################################################,,,,####,       
                ,###########''''           ''''###############################       
              ,#####''   ,,,,##########,,,,          '''####'''          '####       
            ,##' ,,,,###########################,,,                        '##       
           ' ,,###''''                  '''############,,,                           
         ,,##''                                '''############,,,,        ,,,,,,###''
      ,#''                                            '''#######################'''  
     '                                                          ''''####''''         
             ,#######,   #######,   ,#######,      ##                                
            ,#'     '#,  ##    ##  ,#'     '#,    #''#        ######   ,####,        
            ##       ##  ##   ,#'  ##            #'  '#       #        #'  '#        
            ##       ##  #######   ##           ,######,      #####,   #    #        
            '#,     ,#'  ##    ##  '#,     ,#' ,#      #,         ##   #,  ,#        
             '#######'   ##     ##  '#######'  #'      '#     #####' # '####'        



                  #######################################################
                  #                        -***-                        #
                  #          Department of theory and spectroscopy      #
                  #    Directorship and core code : Frank Neese         #
                  #        Max Planck Institute fuer Kohlenforschung    #
                  #                Kaiser Wilhelm Platz 1               #
                  #                 D-45470 Muelheim/Ruhr               #
                  #                      Germany                        #
                  #                                                     #
                  #                  All rights reserved                #
                  #                        -***-                        #
                  #######################################################


                         Program Version 5.0.4 -  RELEASE  -


 With contributions from (in alphabetic order):
   Daniel Aravena         : Magnetic Suceptibility
   Michael Atanasov       : Ab Initio Ligand Field Theory (pilot matlab implementation)
   Alexander A. Auer      : GIAO ZORA, VPT2 properties, NMR spectrum
   Ute Becker             : Parallelization
   Giovanni Bistoni       : ED, misc. LED, open-shell LED, HFLD
   Martin Brehm           : Molecular dynamics
   Dmytro Bykov           : SCF Hessian
   Vijay G. Chilkuri      : MRCI spin determinant printing, contributions to CSF-ICE
   Dipayan Datta          : RHF DLPNO-CCSD density
   Achintya Kumar Dutta   : EOM-CC, STEOM-CC
   Dmitry Ganyushin       : Spin-Orbit,Spin-Spin,Magnetic field MRCI
   Miquel Garcia          : C-PCM and meta-GGA Hessian, CC/C-PCM, Gaussian charge scheme
   Yang Guo               : DLPNO-NEVPT2, F12-NEVPT2, CIM, IAO-localization
   Andreas Hansen         : Spin unrestricted coupled pair/coupled cluster methods
   Benjamin Helmich-Paris : MC-RPA, TRAH-SCF, COSX integrals
   Lee Huntington         : MR-EOM, pCC
   Robert Izsak           : Overlap fitted RIJCOSX, COSX-SCS-MP3, EOM
   Marcus Kettner         : VPT2
   Christian Kollmar      : KDIIS, OOCD, Brueckner-CCSD(T), CCSD density, CASPT2, CASPT2-K
   Simone Kossmann        : Meta GGA functionals, TD-DFT gradient, OOMP2, MP2 Hessian
   Martin Krupicka        : Initial AUTO-CI
   Lucas Lang             : DCDCAS
   Marvin Lechner         : AUTO-CI (C++ implementation), FIC-MRCC
   Dagmar Lenk            : GEPOL surface, SMD
   Dimitrios Liakos       : Extrapolation schemes; Compound Job, initial MDCI parallelization
   Dimitrios Manganas     : Further ROCIS development; embedding schemes
   Dimitrios Pantazis     : SARC Basis sets
   Anastasios Papadopoulos: AUTO-CI, single reference methods and gradients
   Taras Petrenko         : DFT Hessian,TD-DFT gradient, ASA, ECA, R-Raman, ABS, FL, XAS/XES, NRVS
   Peter Pinski           : DLPNO-MP2, DLPNO-MP2 Gradient
   Christoph Reimann      : Effective Core Potentials
   Marius Retegan         : Local ZFS, SOC
   Christoph Riplinger    : Optimizer, TS searches, QM/MM, DLPNO-CCSD(T), (RO)-DLPNO pert. Triples
   Tobias Risthaus        : Range-separated hybrids, TD-DFT gradient, RPA, STAB
   Michael Roemelt        : Original ROCIS implementation
   Masaaki Saitow         : Open-shell DLPNO-CCSD energy and density
   Barbara Sandhoefer     : DKH picture change effects
   Avijit Sen             : IP-ROCIS
   Kantharuban Sivalingam : CASSCF convergence, NEVPT2, FIC-MRCI
   Bernardo de Souza      : ESD, SOC TD-DFT
   Georgi Stoychev        : AutoAux, RI-MP2 NMR, DLPNO-MP2 response
   Willem Van den Heuvel  : Paramagnetic NMR
   Boris Wezisla          : Elementary symmetry handling
   Frank Wennmohs         : Technical directorship


 We gratefully acknowledge several colleagues who have allowed us to
 interface, adapt or use parts of their codes:
   Stefan Grimme, W. Hujo, H. Kruse, P. Pracht,  : VdW corrections, initial TS optimization,
                  C. Bannwarth, S. Ehlert          DFT functionals, gCP, sTDA/sTD-DF
   Ed Valeev, F. Pavosevic, A. Kumar             : LibInt (2-el integral package), F12 methods
   Garnet Chan, S. Sharma, J. Yang, R. Olivares  : DMRG
   Ulf Ekstrom                                   : XCFun DFT Library
   Mihaly Kallay                                 : mrcc  (arbitrary order and MRCC methods)
   Jiri Pittner, Ondrej Demel                    : Mk-CCSD
   Frank Weinhold                                : gennbo (NPA and NBO analysis)
   Christopher J. Cramer and Donald G. Truhlar   : smd solvation model
   Lars Goerigk                                  : TD-DFT with DH, B97 family of functionals
   V. Asgeirsson, H. Jonsson                     : NEB implementation
   FAccTs GmbH                                   : IRC, NEB, NEB-TS, DLPNO-Multilevel, CI-OPT
                                                   MM, QMMM, 2- and 3-layer-ONIOM, Crystal-QMMM,
                                                   LR-CPCM, SF, NACMEs, symmetry and pop. for TD-DFT,
                                                   nearIR, NL-DFT gradient (VV10), updates on ESD,
                                                   ML-optimized integration grids
   S Lehtola, MJT Oliveira, MAL Marques          : LibXC Library
   Liviu Ungur et al                             : ANISO software


 Your calculation uses the libint2 library for the computation of 2-el integrals
 For citations please refer to: http://libint.valeyev.net

 Your ORCA version has been built with support for libXC version: 5.1.0
 For citations please refer to: https://tddft.org/programs/libxc/

 This ORCA versions uses:
   CBLAS   interface :  Fast vector & matrix operations
   LAPACKE interface :  Fast linear algebra routines
   SCALAPACK package :  Parallel linear algebra routines
   Shared memory     :  Shared parallel matrices
   BLAS/LAPACK       :  OpenBLAS 0.3.15  USE64BITINT DYNAMIC_ARCH NO_AFFINITY SkylakeX SINGLE_THREADED
        Core in use  :  SkylakeX
   Copyright (c) 2011-2014, The OpenBLAS Project


Your calculation utilizes the atom-pairwise dispersion correction
with the Becke-Johnson damping scheme (D3BJ)
Cite in your paper:
S.Grimme, S.Ehrlich, L.Goerigk, J Comput Chem, (2011), 32, 1456–1465 
S.Grimme, J.Antony, S.Ehrlich and H.Krieg, J.Chem.Phys., 132, (2010), 154104 
   

================================================================================

----- Orbital basis set information -----
Your calculation utilizes the basis: def2-SVP
   F. Weigend and R. Ahlrichs, Phys. Chem. Chem. Phys. 7, 3297 (2005).

----- AuxJ basis set information -----
Your calculation utilizes the auxiliary basis: def2/J
   F. Weigend, Phys. Chem. Chem. Phys. 8, 1057 (2006).

================================================================================
                                        WARNINGS
                       Please study these warnings very carefully!
================================================================================


WARNING: your system is open-shell and RHF/RKS was chosen
  ===> : WILL SWITCH to UHF/UKS


WARNING: Geometry Optimization
  ===> : Switching off AutoStart
         For restart on a previous wavefunction, please use MOREAD

INFO   : the flag for use of the SHARK integral package has been found!

================================================================================
                                       INPUT FILE
================================================================================
NAME = path_opt6_orca.inp
|  1> ! LooseOpt PBE0 RIJCOSX D3BJ def2-SVP def2/J 
|  2> %geom Constraints
|  3> { B 1 5 2.288875967787941 C }
|  4> { B 0 1 2.502715380555486 C }
|  5>     end
|  6> end
|  7> %geom MaxIter 50 end
|  8> %output 
|  9> xyzfile=True 
| 10> end 
| 11> %scf 
| 12> maxiter 250 
| 13> end
| 14> %output
| 15> Print[P_Hirshfeld] = 1
| 16> end
| 17> % maxcore
| 18> 4000
| 19> %pal nprocs 8
| 20> end
| 21> *xyz 0 2
| 22> O   -2.31759076   0.53573283   1.74437431 
| 23> O   -0.50785903  -0.31909811   0.82454271 
| 24> C   -0.73625204   0.18816023  -0.46064072 
| 25> C    0.14221659   0.90443020   0.49828929 
| 26> C    1.52213943   0.45177737   0.25353940 
| 27> C    1.37506054  -0.61628099  -0.53230447 
| 28> C    0.11358286  -0.67483300  -1.33289845 
| 29> H   -2.22536682  -0.22554206   2.33972787 
| 30> H   -1.75647654   0.50900411  -0.68405368 
| 31> H   -0.18356255   1.78162901   1.05949052 
| 32> H    2.40838871   0.74674171   0.81367301 
| 33> H    2.19855512  -1.30329029  -0.75558640 
| 34> H    0.28042308  -0.29107330  -2.35376985 
| 35> H   -0.31325861  -1.68725774  -1.41438356 
| 36> *
| 37> 
| 38>                          ****END OF INPUT****
================================================================================

                       *****************************
                       * Geometry Optimization Run *
                       *****************************

Geometry optimization settings:
Update method            Update   .... BFGS
Choice of coordinates    CoordSys .... Z-matrix Internals
Initial Hessian          InHess   .... Almoef's Model

Convergence Tolerances:
Energy Change            TolE     ....  3.0000e-05 Eh
Max. Gradient            TolMAXG  ....  2.0000e-03 Eh/bohr
RMS Gradient             TolRMSG  ....  5.0000e-04 Eh/bohr
Max. Displacement        TolMAXD  ....  1.0000e-02 bohr
RMS Displacement         TolRMSD  ....  7.0000e-03 bohr
Strict Convergence                ....  False
------------------------------------------------------------------------------
                        ORCA OPTIMIZATION COORDINATE SETUP
------------------------------------------------------------------------------

The optimization will be done in new redundant internal coordinates
Making redundant internal coordinates   ...  (new redundants) done
Evaluating the initial hessian          ...  (Almloef) done
Evaluating the coordinates              ...  done
Calculating the B-matrix                .... done
Calculating the G-matrix                .... done
Diagonalizing the G-matrix              .... done
Imposing constraints:
 Iter   0:  RMS(Cart)=    0.0112193486 RMS(Int)=    0.3442823529
 Iter   1:  RMS(Cart)=    0.0110228086 RMS(Int)=    0.2884006920
 Iter   2:  RMS(Cart)=    0.0123442590 RMS(Int)=    0.2340486970
 Iter   3:  RMS(Cart)=    0.0130589804 RMS(Int)=    0.1800835926
 Iter   4:  RMS(Cart)=    0.0133728291 RMS(Int)=    0.1262399710
 Iter   5:  RMS(Cart)=    0.0121252516 RMS(Int)=    0.0784080305
 Iter   6:  RMS(Cart)=    0.0078677761 RMS(Int)=    0.0488014831
 Iter   7:  RMS(Cart)=    0.0050349567 RMS(Int)=    0.0303967020
 Iter   8:  RMS(Cart)=    0.0031921583 RMS(Int)=    0.0189372656
 Iter   9:  RMS(Cart)=    0.0020114341 RMS(Int)=    0.0117984730
 Iter  10:  RMS(Cart)=    0.0012623724 RMS(Int)=    0.0073506776
 Iter  11:  RMS(Cart)=    0.0007902019 RMS(Int)=    0.0045794889
 Iter  12:  RMS(Cart)=    0.0004938032 RMS(Int)=    0.0028529620
 Iter  13:  RMS(Cart)=    0.0003082427 RMS(Int)=    0.0017773255
 Iter  14:  RMS(Cart)=    0.0001922746 RMS(Int)=    0.0011072161
 Iter  15:  RMS(Cart)=    0.0001198809 RMS(Int)=    0.0006897537
 Iter  16:  RMS(Cart)=    0.0000747218 RMS(Int)=    0.0004296881
 Iter  17:  RMS(Cart)=    0.0000465650 RMS(Int)=    0.0002676769
 Iter  18:  RMS(Cart)=    0.0000290146 RMS(Int)=    0.0001667507
 Iter  19:  RMS(Cart)=    0.0000180775 RMS(Int)=    0.0001038780
 Iter  20:  RMS(Cart)=    0.0000112626 RMS(Int)=    0.0000647112
 Iter  21:  RMS(Cart)=    0.0000070165 RMS(Int)=    0.0000403120
 Iter  22:  RMS(Cart)=    0.0000043711 RMS(Int)=    0.0000251125
 Iter  23:  RMS(Cart)=    0.0000027231 RMS(Int)=    0.0000156439
 Iter  24:  RMS(Cart)=    0.0000016964 RMS(Int)=    0.0000097454
 Iter  25:  RMS(Cart)=    0.0000010568 RMS(Int)=    0.0000060709
 Iter  26:  RMS(Cart)=    0.0000006583 RMS(Int)=    0.0000037819
 Iter  27:  RMS(Cart)=    0.0000004101 RMS(Int)=    0.0000023559
 Iter  28:  RMS(Cart)=    0.0000002555 RMS(Int)=    0.0000014676
 Iter  29:  RMS(Cart)=    0.0000001592 RMS(Int)=    0.0000009143
 Iter  30:  RMS(Cart)=    0.0000000991 RMS(Int)=    0.0000005695
 Iter  31:  RMS(Cart)=    0.0000000618 RMS(Int)=    0.0000003548
 Iter  32:  RMS(Cart)=    0.0000000385 RMS(Int)=    0.0000002210
 Iter  33:  RMS(Cart)=    0.0000000240 RMS(Int)=    0.0000001377
 Iter  34:  RMS(Cart)=    0.0000000149 RMS(Int)=    0.0000000858
CONVERGED
The first mode is                       ....  106
The number of degrees of freedom        ....   36
Storing new coordinates                 .... done

    -----------------------------------------------------------------
                    Redundant Internal Coordinates


    -----------------------------------------------------------------
         Definition                    Initial Value    Approx d2E/dq
    -----------------------------------------------------------------
      1. B(O   1,O   0)                  2.5027         0.025315 C 
      2. B(C   2,O   1)                  1.3902         0.538585   
      3. B(C   2,O   0)                  2.8670         0.003991   
      4. B(C   3,O   1)                  1.4067         0.494984   
      5. B(C   3,O   0)                  2.9105         0.003366   
      6. B(C   3,C   2)                  1.4851         0.441236   
      7. B(C   4,C   3)                  1.4876         0.461021   
      8. B(C   5,C   4)                  1.3283         0.767111   
      9. B(C   5,O   1)                  2.2889         0.017081 C 
     10. B(C   6,C   2)                  1.5073         0.428618   
     11. B(C   6,C   5)                  1.4886         0.424478   
     12. B(H   7,O   0)                  0.9315         0.499695   
     13. B(H   7,O   1)                  2.4451         0.003895   
     14. B(H   8,O   0)                  2.5294         0.001866   
     15. B(H   8,C   2)                  1.0938         0.356714   
     16. B(H   9,C   3)                  1.0916         0.358613   
     17. B(H   9,O   0)                  2.5993         0.001434   
     18. B(H  10,C   4)                  1.0892         0.361261   
     19. B(H  11,C   5)                  1.0961         0.352980   
     20. B(H  12,C   6)                  1.1038         0.342920   
     21. B(H  13,C   6)                  1.1021         0.344896   
     22. A(O   1,O   0,C   3)           28.8850         0.139114   
     23. A(C   2,O   0,H   7)          101.6223         0.177919   
     24. A(C   3,O   0,H   7)           99.0902         0.174557   
     25. A(O   1,O   0,C   2)           29.0054         0.141083   
     26. A(C   2,O   0,C   3)           29.7784         0.122267   
     27. A(O   1,O   0,H   7)           75.6882         0.222947   
     28. A(O   0,O   1,C   2)           90.1929         0.247067   
     29. A(C   2,O   1,C   3)           64.1426         0.401429   
     30. A(O   0,O   1,C   3)           91.8629         0.244075   
     31. A(O   1,C   2,C   3)           58.4682         0.395931   
     32. A(O   0,C   2,C   6)          154.9966         0.189472   
     33. A(C   6,C   2,H   8)          127.7224         0.331236   
     34. A(O   1,C   2,H   8)          119.1286         0.341988   
     35. A(O   1,C   2,C   6)           99.7245         0.393922   
     36. A(O   0,C   2,O   1)           60.8017         0.193931   
     37. A(C   3,C   2,C   6)          107.6124         0.382887   
     38. A(O   0,C   2,H   8)           61.2359         0.172359   
     39. A(O   0,C   2,C   3)           76.7348         0.190134   
     40. A(C   3,C   2,H   8)          121.8381         0.332832   
     41. A(O   0,C   3,C   2)           73.4868         0.186310   
     42. A(C   4,C   3,H   9)          129.3660         0.335561   
     43. A(O   0,C   3,H   9)           62.7781         0.169304   
     44. A(O   1,C   3,C   4)           98.1950         0.393127   
     45. A(C   2,C   3,C   4)          106.8791         0.387775   
     46. A(O   0,C   3,C   4)          153.8591         0.187281   
     47. A(O   0,C   3,O   1)           59.2521         0.188053   
     48. A(O   1,C   3,C   2)           57.3892         0.390123   
     49. A(O   1,C   3,H   9)          118.3796         0.337498   
     50. A(C   2,C   3,H   9)          121.8059         0.333125   
     51. A(C   5,C   4,H  10)          126.8008         0.366140   
     52. A(C   3,C   4,C   5)          105.3342         0.427616   
     53. A(C   3,C   4,H  10)          125.8157         0.335972   
     54. A(C   4,C   5,C   6)          114.7168         0.421346   
     55. A(C   4,C   5,H  11)          123.3326         0.364689   
     56. A(C   6,C   5,H  11)          120.7332         0.330129   
     57. A(C   2,C   6,C   5)           99.9467         0.380323   
     58. A(C   2,C   6,H  12)          114.5994         0.329083   
     59. A(C   5,C   6,H  12)          110.1326         0.328557   
     60. A(C   2,C   6,H  13)          110.4923         0.329396   
     61. A(C   5,C   6,H  13)          113.2632         0.328868   
     62. A(H  12,C   6,H  13)          108.3519         0.286679   
     63. D(C   2,O   1,O   0,H   7)    152.7380         0.001561   
     64. D(C   2,O   1,O   0,C   3)    -64.1348         0.001561   
     65. D(C   3,O   1,O   0,H   7)   -143.1272         0.001561   
     66. D(C   3,O   1,O   0,C   2)     64.1348         0.001561   
     67. D(C   3,C   2,O   1,O   0)     91.9767         0.030361   
     68. D(H   8,C   2,O   1,O   0)    -19.5294         0.030361   
     69. D(C   6,C   2,O   1,C   3)    104.7746         0.030361   
     70. D(C   3,C   2,O   0,H   7)    -88.0130         0.001502   
     71. D(O   1,C   2,O   0,H   7)    -26.9450         0.001502   
     72. D(H   8,C   2,O   0,O   1)    160.5420         0.001502   
     73. D(C   6,C   2,O   1,O   0)   -163.2486         0.030361   
     74. D(C   6,C   2,O   0,C   3)    103.2974         0.001502   
     75. D(H   8,C   2,O   0,H   7)    133.5970         0.001502   
     76. D(O   0,C   2,O   1,C   3)    -91.9767         0.030361   
     77. D(C   3,C   2,O   0,O   1)    -61.0680         0.001502   
     78. D(H   8,C   2,O   0,C   3)   -138.3900         0.001502   
     79. D(H   8,C   2,O   1,C   3)   -111.5061         0.030361   
     80. D(O   1,C   2,O   0,C   3)     61.0680         0.001502   
     81. D(C   6,C   2,O   0,O   1)     42.2294         0.001502   
     82. D(C   6,C   2,O   0,H   7)     15.2844         0.001502   
     83. D(C   2,C   3,O   1,O   0)    -89.3113         0.025394   
     84. D(C   2,C   3,O   0,O   1)     61.4649         0.001501   
     85. D(O   0,C   3,C   2,O   1)    -63.6801         0.017265   
     86. D(O   0,C   3,C   2,C   6)   -154.4328         0.017265   
     87. D(O   0,C   3,C   2,H   8)     43.2524         0.017265   
     88. D(C   4,C   3,O   0,H   7)      2.7590         0.001501   
     89. D(O   1,C   3,C   2,C   6)    -90.7527         0.017265   
     90. D(C   4,C   3,O   1,C   2)   -104.8394         0.025394   
     91. D(C   4,C   3,O   0,C   2)    -94.7787         0.001501   
     92. D(C   2,C   3,O   0,H   7)     97.5377         0.001501   
     93. D(H   9,C   3,O   0,H   7)   -122.0462         0.001501   
     94. D(H   9,C   3,C   2,C   6)    163.7502         0.017265   
     95. D(H   9,C   3,O   0,O   1)   -158.1190         0.001501   
     96. D(H   9,C   3,O   0,C   2)    140.4160         0.001501   
     97. D(C   4,C   3,C   2,H   8)   -164.0582         0.017265   
     98. D(H   9,C   3,O   1,C   2)    111.4390         0.025394   
     99. D(H   9,C   3,O   1,O   0)     22.1277         0.025394   
    100. D(C   4,C   3,C   2,O   1)     89.0093         0.017265   
    101. D(C   4,C   3,C   2,C   6)     -1.7434         0.017265   
    102. D(O   1,C   3,O   0,H   7)     36.0728         0.001501   
    103. D(C   4,C   3,C   2,O   0)    152.6894         0.017265   
    104. D(O   1,C   3,C   2,H   8)    106.9325         0.017265   
    105. D(O   0,C   3,O   1,C   2)     89.3113         0.025394   
    106. D(H   9,C   3,C   2,H   8)      1.4354         0.017265   
    107. D(H   9,C   3,C   2,O   0)    -41.8169         0.017265   
    108. D(C   4,C   3,O   1,O   0)    165.8493         0.025394   
    109. D(O   1,C   3,O   0,C   2)    -61.4649         0.001501   
    110. D(H   9,C   3,C   2,O   1)   -105.4971         0.017265   
    111. D(O   1,C   3,C   2,O   0)     63.6801         0.017265   
    112. D(C   4,C   3,O   0,O   1)    -33.3138         0.001501   
    113. D(C   5,C   4,C   3,O   1)     45.5175         0.016790   
    114. D(C   5,C   4,C   3,C   2)    -12.7936         0.016790   
    115. D(C   5,C   4,C   3,H   9)   -176.8109         0.016790   
    116. D(C   5,C   4,C   3,O   0)     73.9997         0.016790   
    117. D(H  10,C   4,C   3,O   1)   -119.0354         0.016790   
    118. D(H  10,C   4,C   3,C   2)   -177.3465         0.016790   
    119. D(H  10,C   4,C   3,H   9)     18.6362         0.016790   
    120. D(H  10,C   4,C   3,O   0)    -90.5531         0.016790   
    121. D(C   6,C   5,C   4,C   3)     23.8281         0.045887   
    122. D(C   6,C   5,C   4,H  10)   -171.8204         0.045887   
    123. D(H  11,C   5,C   4,C   3)   -168.7259         0.045887   
    124. D(H  11,C   5,C   4,H  10)     -4.3744         0.045887   
    125. D(C   5,C   6,C   2,O   1)    -46.1149         0.015429   
    126. D(C   5,C   6,C   2,C   3)     13.7337         0.015429   
    127. D(H  13,C   6,C   5,C   4)   -141.6984         0.014250   
    128. D(C   5,C   6,C   2,O   0)    -82.6457         0.015429   
    129. D(H  12,C   6,C   2,O   1)   -163.8002         0.015429   
    130. D(C   2,C   6,C   5,C   4)    -24.1649         0.014250   
    131. D(H  12,C   6,C   2,H   8)     57.0055         0.015429   
    132. D(H  12,C   6,C   2,O   0)    159.6690         0.015429   
    133. D(H  13,C   6,C   2,O   1)     73.4633         0.015429   
    134. D(H  13,C   6,C   2,C   3)    133.3119         0.015429   
    135. D(H  13,C   6,C   2,H   8)    -65.7310         0.015429   
    136. D(H  12,C   6,C   2,C   3)   -103.9516         0.015429   
    137. D(H  13,C   6,C   2,O   0)     36.9325         0.015429   
    138. D(C   2,C   6,C   5,H  11)    168.0323         0.014250   
    139. D(H  12,C   6,C   5,C   4)     96.7935         0.014250   
    140. D(C   5,C   6,C   2,H   8)    174.6907         0.015429   
    141. D(H  12,C   6,C   5,H  11)    -71.0094         0.014250   
    142. D(H  13,C   6,C   5,H  11)     50.4987         0.014250   
    -----------------------------------------------------------------

Number of atoms                         .... 14
Number of degrees of freedom            .... 142

         *************************************************************
         *                GEOMETRY OPTIMIZATION CYCLE   1            *
         *************************************************************
---------------------------------
CARTESIAN COORDINATES (ANGSTROEM)
---------------------------------
  O     -2.461555    0.633552    1.805395
  O     -0.414680   -0.391416    0.793797
  C     -0.743091    0.158888   -0.439869
  C      0.138337    0.872488    0.519032
  C      1.531321    0.436576    0.231941
  C      1.411817   -0.617855   -0.566933
  C      0.137264   -0.676506   -1.333776
  H     -2.297887   -0.119022    2.329388
  H     -1.773234    0.477321   -0.623560
  H     -0.213924    1.729540    1.096090
  H      2.420584    0.740541    0.782567
  H      2.247572   -1.281170   -0.817899
  H      0.284579   -0.265503   -2.347597
  H     -0.267103   -1.697335   -1.428574

----------------------------
CARTESIAN COORDINATES (A.U.)
----------------------------
  NO LB      ZA    FRAG     MASS         X           Y           Z
   0 O     8.0000    0    15.999   -4.651664    1.197240    3.411702
   1 O     8.0000    0    15.999   -0.783632   -0.739669    1.500059
   2 C     6.0000    0    12.011   -1.404238    0.300256   -0.831232
   3 C     6.0000    0    12.011    0.261419    1.648763    0.980828
   4 C     6.0000    0    12.011    2.893778    0.825010    0.438304
   5 C     6.0000    0    12.011    2.667947   -1.167577   -1.071349
   6 C     6.0000    0    12.011    0.259391   -1.278412   -2.520472
   7 H     1.0000    0     1.008   -4.342377   -0.224918    4.401905
   8 H     1.0000    0     1.008   -3.350927    0.902006   -1.178359
   9 H     1.0000    0     1.008   -0.404257    3.268356    2.071311
  10 H     1.0000    0     1.008    4.574241    1.399420    1.478837
  11 H     1.0000    0     1.008    4.247296   -2.421060   -1.545605
  12 H     1.0000    0     1.008    0.537776   -0.501728   -4.436316
  13 H     1.0000    0     1.008   -0.504751   -3.207498   -2.699614

--------------------------------
INTERNAL COORDINATES (ANGSTROEM)
--------------------------------
 O      0   0   0     0.000000000000     0.00000000     0.00000000
 O      1   0   0     2.202715379460     0.00000000     0.00000000
 C      2   1   0     1.400418094450    96.23837864     0.00000000
 C      2   1   3     1.423397741726    97.89474992    63.95792354
 C      4   2   1     1.472747139707   101.64326464   163.61961623
 C      5   4   2     1.334140715317   103.92477802    46.69284308
 C      3   2   1     1.492585079595   103.53373853   199.54589004
 H      1   2   3     0.970819537637    82.74546002   152.66889744
 H      3   2   1     1.092571359880   116.50759722   341.63324859
 H      4   2   1     1.091126308398   115.90011837    20.95974646
 H      5   4   2     1.089124147755   126.42219236   242.26864024
 H      6   5   4     1.095435950588   122.63337574   191.41244299
 H      7   3   2     1.103306658047   115.19627668   194.72218677
 H      7   3   2     1.101742854675   110.72894386    71.75883075

---------------------------
INTERNAL COORDINATES (A.U.)
---------------------------
 O      0   0   0     0.000000000000     0.00000000     0.00000000
 O      1   0   0     4.162528818155     0.00000000     0.00000000
 C      2   1   0     2.646406671498    96.23837864     0.00000000
 C      2   1   3     2.689831911505    97.89474992    63.95792354
 C      4   2   1     2.783088758562   101.64326464   163.61961623
 C      5   4   2     2.521160576063   103.92477802    46.69284308
 C      3   2   1     2.820577032011   103.53373853   199.54589004
 H      1   2   3     1.834583051595    82.74546002   152.66889744
 H      3   2   1     2.064660651939   116.50759722   341.63324859
 H      4   2   1     2.061929900389   115.90011837    20.95974646
 H      5   4   2     2.058146365098   126.42219236   242.26864024
 H      6   5   4     2.070073943863   122.63337574   191.41244299
 H      7   3   2     2.084947425441   115.19627668   194.72218677
 H      7   3   2     2.081992265340   110.72894386    71.75883075

---------------------
BASIS SET INFORMATION
---------------------
There are 3 groups of distinct atoms

 Group   1 Type O   : 7s4p1d contracted to 3s2p1d pattern {511/31/1}
 Group   2 Type C   : 7s4p1d contracted to 3s2p1d pattern {511/31/1}
 Group   3 Type H   : 4s1p contracted to 2s1p pattern {31/1}

Atom   0O    basis set group =>   1
Atom   1O    basis set group =>   1
Atom   2C    basis set group =>   2
Atom   3C    basis set group =>   2
Atom   4C    basis set group =>   2
Atom   5C    basis set group =>   2
Atom   6C    basis set group =>   2
Atom   7H    basis set group =>   3
Atom   8H    basis set group =>   3
Atom   9H    basis set group =>   3
Atom  10H    basis set group =>   3
Atom  11H    basis set group =>   3
Atom  12H    basis set group =>   3
Atom  13H    basis set group =>   3
---------------------------------
AUXILIARY/J BASIS SET INFORMATION
---------------------------------
There are 3 groups of distinct atoms

 Group   1 Type O   : 12s5p4d2f1g contracted to 6s4p3d1f1g pattern {711111/2111/211/2/1}
 Group   2 Type C   : 12s5p4d2f1g contracted to 6s4p3d1f1g pattern {711111/2111/211/2/1}
 Group   3 Type H   : 5s2p1d contracted to 3s1p1d pattern {311/2/1}

Atom   0O    basis set group =>   1
Atom   1O    basis set group =>   1
Atom   2C    basis set group =>   2
Atom   3C    basis set group =>   2
Atom   4C    basis set group =>   2
Atom   5C    basis set group =>   2
Atom   6C    basis set group =>   2
Atom   7H    basis set group =>   3
Atom   8H    basis set group =>   3
Atom   9H    basis set group =>   3
Atom  10H    basis set group =>   3
Atom  11H    basis set group =>   3
Atom  12H    basis set group =>   3
Atom  13H    basis set group =>   3


           ************************************************************
           *        Program running with 8 parallel MPI-processes     *
           *              working on a common directory               *
           ************************************************************
------------------------------------------------------------------------------
                           ORCA GTO INTEGRAL CALCULATION
                           -- RI-GTO INTEGRALS CHOSEN --
------------------------------------------------------------------------------
------------------------------------------------------------------------------
                   ___                                                        
                  /   \      - P O W E R E D   B Y -                         
                 /     \                                                     
                 |  |  |   _    _      __       _____    __    __             
                 |  |  |  | |  | |    /  \     |  _  \  |  |  /  |          
                  \  \/   | |  | |   /    \    | | | |  |  | /  /          
                 / \  \   | |__| |  /  /\  \   | |_| |  |  |/  /          
                |  |  |   |  __  | /  /__\  \  |    /   |      \           
                |  |  |   | |  | | |   __   |  |    \   |  |\   \          
                \     /   | |  | | |  |  |  |  | |\  \  |  | \   \       
                 \___/    |_|  |_| |__|  |__|  |_| \__\ |__|  \__/        
                                                                              
                      - O R C A' S   B I G   F R I E N D -                    
                                      &                                       
                       - I N T E G R A L  F E E D E R -                       
                                                                              
 v1 FN, 2020, v2 2021                                                         
------------------------------------------------------------------------------


Reading SHARK input file path_opt6_orca.SHARKINP.tmp ... ok
----------------------
SHARK INTEGRAL PACKAGE
----------------------

Number of atoms                             ...     14
Number of basis functions                   ...    133
Number of shells                            ...     63
Maximum angular momentum                    ...      2
Integral batch strategy                     ... SHARK/LIBINT Hybrid
RI-J (if used) integral strategy            ... SPLIT-RIJ (Revised 2003 algorithm where possible)
Printlevel                                  ...      1
Contraction scheme used                     ... SEGMENTED contraction
Coulomb Range Separation                    ... NOT USED
Exchange Range Separation                   ... NOT USED
Finite Nucleus Model                        ... NOT USED
Auxiliary Coulomb fitting basis             ... AVAILABLE
   # of basis functions in Aux-J            ...    420
   # of shells in Aux-J                     ...    140
   Maximum angular momentum in Aux-J        ...      4
Auxiliary J/K fitting basis                 ... NOT available
Auxiliary Correlation fitting basis         ... NOT available
Auxiliary 'external' fitting basis          ... NOT available
Integral threshold                          ...     2.500000e-11
Primitive cut-off                           ...     2.500000e-12
Primitive pair pre-selection threshold      ...     2.500000e-12

Calculating pre-screening integrals         ... done (  0.0 sec) Dimension = 63
Organizing shell pair data                  ... done (  0.0 sec)
Shell pair information
Total number of shell pairs                 ...      2016
Shell pairs after pre-screening             ...      1944
Total number of primitive shell pairs       ...      7252
Primitive shell pairs kept                  ...      5334
          la=0 lb=0:    604 shell pairs
          la=1 lb=0:    712 shell pairs
          la=1 lb=1:    224 shell pairs
          la=2 lb=0:    236 shell pairs
          la=2 lb=1:    141 shell pairs
          la=2 lb=2:     27 shell pairs

Calculating one electron integrals          ... done (  0.0 sec)
Calculating RI/J V-Matrix + Cholesky decomp.... done (  0.0 sec)
Calculating Nuclear repulsion               ... done (  0.0 sec) ENN=    300.968077789033 Eh

SHARK setup successfully completed in   0.1 seconds

Maximum memory used throughout the entire GTOINT-calculation: 10.7 MB


           ************************************************************
           *        Program running with 8 parallel MPI-processes     *
           *              working on a common directory               *
           ************************************************************
-------------------------------------------------------------------------------
                                 ORCA SCF
-------------------------------------------------------------------------------

------------
SCF SETTINGS
------------
Hamiltonian:
 Density Functional     Method          .... DFT(GTOs)
 Exchange Functional    Exchange        .... PBE
   PBE kappa parameter   XKappa         ....  0.804000
   PBE mue parameter    XMuePBE         ....  0.219520
 Correlation Functional Correlation     .... PBE
   PBE beta parameter  CBetaPBE         ....  0.066725
 LDA part of GGA corr.  LDAOpt          .... PW91-LDA
 Gradients option       PostSCFGGA      .... off
 Hybrid DFT is turned on
   Fraction HF Exchange ScalHFX         ....  0.250000
   Scaling of DF-GGA-X  ScalDFX         ....  0.750000
   Scaling of DF-GGA-C  ScalDFC         ....  1.000000
   Scaling of DF-LDA-C  ScalLDAC        ....  1.000000
   Perturbative correction              ....  0.000000
   Density functional embedding theory  .... OFF
   NL short-range parameter             ....  6.900000
 RI-approximation to the Coulomb term is turned on
   Number of AuxJ basis functions       .... 420
   RIJ-COSX (HFX calculated with COS-X)).... on


General Settings:
 Integral files         IntName         .... path_opt6_orca
 Hartree-Fock type      HFTyp           .... UHF
 Total Charge           Charge          ....    0
 Multiplicity           Mult            ....    2
 Number of Electrons    NEL             ....   53
 Basis Dimension        Dim             ....  133
 Nuclear Repulsion      ENuc            ....    300.9680777890 Eh

Convergence Acceleration:
 DIIS                   CNVDIIS         .... on
   Start iteration      DIISMaxIt       ....    12
   Startup error        DIISStart       ....  0.200000
   # of expansion vecs  DIISMaxEq       ....     5
   Bias factor          DIISBfac        ....   1.050
   Max. coefficient     DIISMaxC        ....  10.000
 Trust-Rad. Augm. Hess. CNVTRAH         .... auto
   Auto Start mean grad. ratio tolernc. ....  1.125000
   Auto Start start iteration           ....    20
   Auto Start num. interpolation iter.  ....    10
   Max. Number of Micro iterations      ....    16
   Max. Number of Macro iterations      .... Maxiter - #DIIS iter
   Number of Davidson start vectors     ....     2
   Converg. threshold I  (grad. norm)   ....   1.000e-05
   Converg. threshold II (energy diff.) ....   1.000e-08
   Grad. Scal. Fac. for Micro threshold ....   0.100
   Minimum threshold for Micro iter.    ....   0.010
   NR start threshold (gradient norm)   ....   0.001
   Initial trust radius                 ....   0.400
   Minimum AH scaling param. (alpha)    ....   1.000
   Maximum AH scaling param. (alpha)    .... 1000.000
   Orbital update algorithm             .... Taylor
   White noise on init. David. guess    .... on
   Maximum white noise                  ....   0.010
   Quad. conv. algorithm                .... NR
 SOSCF                  CNVSOSCF        .... off
 Level Shifting         CNVShift        .... on
   Level shift para.    LevelShift      ....    0.2500
   Turn off err/grad.   ShiftErr        ....    0.0010
 Zerner damping         CNVZerner       .... off
 Static damping         CNVDamp         .... on
   Fraction old density DampFac         ....    0.7000
   Max. Damping (<1)    DampMax         ....    0.9800
   Min. Damping (>=0)   DampMin         ....    0.0000
   Turn off err/grad.   DampErr         ....    0.1000
 Fernandez-Rico         CNVRico         .... off

SCF Procedure:
 Maximum # iterations   MaxIter         ....   250
 SCF integral mode      SCFMode         .... Direct
   Integral package                     .... SHARK and LIBINT hybrid scheme
 Reset frequency        DirectResetFreq ....    20
 Integral Threshold     Thresh          ....  2.500e-11 Eh
 Primitive CutOff       TCut            ....  2.500e-12 Eh

Convergence Tolerance:
 Convergence Check Mode ConvCheckMode   .... Total+1el-Energy
 Convergence forced     ConvForced      .... 0
 Energy Change          TolE            ....  1.000e-08 Eh
 1-El. energy change                    ....  1.000e-05 Eh
 DIIS Error             TolErr          ....  5.000e-07


Diagonalization of the overlap matrix:
Smallest eigenvalue                        ... 7.201e-04
Time for diagonalization                   ...    0.003 sec
Threshold for overlap eigenvalues          ... 1.000e-08
Number of eigenvalues below threshold      ... 0
Time for construction of square roots      ...    0.001 sec
Total time needed                          ...    0.004 sec

Time for model grid setup =    0.042 sec

------------------------------
INITIAL GUESS: MODEL POTENTIAL
------------------------------
Loading Hartree-Fock densities                     ... done
Calculating cut-offs                               ... done
Initializing the effective Hamiltonian             ... done
Setting up the integral package (SHARK)            ... done
Starting the Coulomb interaction                   ... done (   0.0 sec)
Reading the grid                                   ... done
Mapping shells                                     ... done
Starting the XC term evaluation                    ... done (   0.0 sec)
  promolecular density results
     # of electrons  =     52.997544506
     EX              =    -43.917132606
     EC              =     -1.759343692
     EX+EC           =    -45.676476297
Transforming the Hamiltonian                       ... done (   0.0 sec)
Diagonalizing the Hamiltonian                      ... done (   0.0 sec)
Back transforming the eigenvectors                 ... done (   0.0 sec)
Now organizing SCF variables                       ... done
                      ------------------
                      INITIAL GUESS DONE (   0.1 sec)
                      ------------------
-------------------
DFT GRID GENERATION
-------------------

General Integration Accuracy     IntAcc      ... 4.388
Radial Grid Type                 RadialGrid  ... OptM3 with GC (2021)
Angular Grid (max. ang.)         AngularGrid ... 4 (Lebedev-302)
Angular grid pruning method      GridPruning ... 4 (adaptive)
Weight generation scheme         WeightScheme... Becke
Basis function cutoff            BFCut       ... 1.0000e-11
Integration weight cutoff        WCut        ... 1.0000e-14
Angular grids for H and He will be reduced by one unit
Partially contracted basis set               ... off
Rotationally invariant grid construction     ... off

Total number of grid points                  ...    64866
Total number of batches                      ...     1021
Average number of points per batch           ...       63
Average number of grid points per atom       ...     4633
Time for grid setup =    0.245 sec

--------------------
COSX GRID GENERATION
--------------------

GRIDX 1
-------
General Integration Accuracy     IntAcc      ... 3.816
Radial Grid Type                 RadialGrid  ... OptM3 with GC (2021)
Angular Grid (max. ang.)         AngularGrid ... 1 (Lebedev-50)
Angular grid pruning method      GridPruning ... 4 (adaptive)
Weight generation scheme         WeightScheme... Becke
Basis function cutoff            BFCut       ... 1.0000e-11
Integration weight cutoff        WCut        ... 1.0000e-14
Angular grids for H and He will be reduced by one unit
Partially contracted basis set               ... on
Rotationally invariant grid construction     ... off

Total number of grid points                  ...     8298
Total number of batches                      ...      138
Average number of points per batch           ...       60
Average number of grid points per atom       ...      593
UseSFitting                                  ... on

GRIDX 2
-------
General Integration Accuracy     IntAcc      ... 4.020
Radial Grid Type                 RadialGrid  ... OptM3 with GC (2021)
Angular Grid (max. ang.)         AngularGrid ... 2 (Lebedev-110)
Angular grid pruning method      GridPruning ... 4 (adaptive)
Weight generation scheme         WeightScheme... Becke
Basis function cutoff            BFCut       ... 1.0000e-11
Integration weight cutoff        WCut        ... 1.0000e-14
Angular grids for H and He will be reduced by one unit
Partially contracted basis set               ... on
Rotationally invariant grid construction     ... off

Total number of grid points                  ...    18042
Total number of batches                      ...      289
Average number of points per batch           ...       62
Average number of grid points per atom       ...     1289
UseSFitting                                  ... on

GRIDX 3
-------
General Integration Accuracy     IntAcc      ... 4.338
Radial Grid Type                 RadialGrid  ... OptM3 with GC (2021)
Angular Grid (max. ang.)         AngularGrid ... 3 (Lebedev-194)
Angular grid pruning method      GridPruning ... 4 (adaptive)
Weight generation scheme         WeightScheme... Becke
Basis function cutoff            BFCut       ... 1.0000e-11
Integration weight cutoff        WCut        ... 1.0000e-14
Angular grids for H and He will be reduced by one unit
Partially contracted basis set               ... on
Rotationally invariant grid construction     ... off

Total number of grid points                  ...    39644
Total number of batches                      ...      627
Average number of points per batch           ...       63
Average number of grid points per atom       ...     2832
UseSFitting                                  ... on

Time for X-Grid setup             =    0.180 sec

--------------
SCF ITERATIONS
--------------
ITER       Energy         Delta-E        Max-DP      RMS-DP      [F,P]     Damp
               ***  Starting incremental Fock matrix formation  ***
  0   -343.9868578607   0.000000000000 0.12423557  0.00349641  0.2113587 0.7000
  1   -344.0474067925  -0.060548931774 0.02335358  0.00117955  0.0403673 0.7000
                               ***Turning on DIIS***
  2   -344.1384480052  -0.091041212751 0.04648714  0.00263055  0.0242275 0.0000
  3   -344.2475225877  -0.109074582482 0.02902702  0.00082580  0.0584168 0.0000
  4   -344.2986248676  -0.051102279911 0.02984981  0.00060964  0.0363641 0.0000
  5   -344.3233204282  -0.024695560611 0.02093219  0.00048279  0.0225560 0.0000
  6   -344.3356638075  -0.012343379262 0.01876578  0.00052120  0.0168903 0.0000
  7   -344.3434052985  -0.007741490992 0.01199584  0.00046854  0.0102456 0.0000
  8   -344.3469989218  -0.003593623294 0.01005665  0.00025820  0.0106688 0.0000
  9   -344.3490640455  -0.002065123726 0.00524258  0.00020254  0.0061039 0.0000
 10   -344.3500670098  -0.001002964301 0.00676768  0.00014581  0.0056020 0.0000
 11   -344.3506634827  -0.000596472895 0.00294577  0.00009323  0.0026569 0.0000
 12   -344.3509172588  -0.000253776076 0.00233158  0.00007110  0.0021366 0.0000
 13   -344.3510309431  -0.000113684314 0.00179619  0.00004776  0.0015681 0.0000
 14   -344.3510957190  -0.000064775874 0.00327117  0.00008555  0.0009361 0.0000
               *** Restarting incremental Fock matrix formation ***
                                   *** Resetting DIIS ***
 15   -344.3511227240  -0.000027005046 0.00041441  0.00001440  0.0002577 0.0000
 16   -344.3511224428   0.000000281197 0.00024046  0.00000807  0.0003523 0.0000
 17   -344.3511239727  -0.000001529871 0.00019700  0.00000345  0.0000901 0.0000
 18   -344.3511241698  -0.000000197089 0.00026041  0.00000308  0.0000766 0.0000
 19   -344.3511243518  -0.000000181990 0.00033342  0.00000382  0.0000751 0.0000
 20   -344.3511245552  -0.000000203427 0.00026540  0.00000310  0.0000738 0.0000
 21   -344.3511247044  -0.000000149213 0.00038362  0.00000431  0.0000707 0.0000
 22   -344.3511248951  -0.000000190642 0.00084982  0.00000967  0.0000646 0.0000
 23   -344.3511252565  -0.000000361412 0.00098117  0.00001108  0.0000509 0.0000
 24   -344.3511255396  -0.000000283098 0.00110103  0.00001244  0.0000322 0.0000
 25   -344.3511257016  -0.000000162027 0.00028767  0.00000325  0.0000108 0.0000
 26   -344.3511257145  -0.000000012953 0.00008990  0.00000102  0.0000066 0.0000
 27   -344.3511257143   0.000000000244 0.00004847  0.00000055  0.0000030 0.0000
 28   -344.3511257162  -0.000000001874 0.00000597  0.00000009  0.0000017 0.0000
 29   -344.3511257129   0.000000003301 0.00002151  0.00000025  0.0000011 0.0000
 30   -344.3511257072   0.000000005707 0.00000110  0.00000004  0.0000010 0.0000
                 **** Energy Check signals convergence ****

               *****************************************************
               *                     SUCCESS                       *
               *           SCF CONVERGED AFTER  31 CYCLES          *
               *****************************************************

Old exchange energy                            =    -11.206345941 Eh
New exchange energy                            =    -11.206324796 Eh
Exchange energy change after final integration =      0.000021145 Eh
Total energy after final integration           =   -344.351104565 Eh
Final COS-X integration done in                =     0.653 sec

----------------
TOTAL SCF ENERGY
----------------

Total Energy       :         -344.35110457 Eh           -9370.26993 eV

Components:
Nuclear Repulsion  :          300.96807779 Eh            8189.75776 eV
Electronic Energy  :         -645.31918235 Eh          -17560.02769 eV
One Electron Energy:        -1065.06872576 Eh          -28981.99344 eV
Two Electron Energy:          419.74954341 Eh           11421.96576 eV
Max COSX asymmetry :            0.00000051 Eh               0.00001 eV

Virial components:
Potential Energy   :         -686.21906015 Eh          -18672.96994 eV
Kinetic Energy     :          341.86795559 Eh            9302.70001 eV
Virial Ratio       :            2.00726347


DFT components:
N(Alpha)           :       27.000013783798 electrons
N(Beta)            :       26.000013592442 electrons
N(Total)           :       53.000027376239 electrons
E(X)               :      -33.525679393772 Eh       
E(C)               :       -1.773618992677 Eh       
E(XC)              :      -35.299298386448 Eh       
DFET-embed. en.    :        0.000000000000 Eh       

---------------
SCF CONVERGENCE
---------------

  Last Energy change         ...   -2.6144e-09  Tolerance :   1.0000e-08
  Last MAX-Density change    ...    0.0000e+00  Tolerance :   1.0000e-07
  Last RMS-Density change    ...    0.0000e+00  Tolerance :   5.0000e-09
  Last DIIS Error            ...    1.0761e-06  Tolerance :   5.0000e-07

             **** THE GBW FILE WAS UPDATED (path_opt6_orca.gbw) ****
             **** DENSITY path_opt6_orca.scfp WAS UPDATED ****
             **** ENERGY FILE WAS UPDATED (path_opt6_orca.en.tmp) ****
----------------------
UHF SPIN CONTAMINATION
----------------------

Warning: in a DFT calculation there is little theoretical justification to 
         calculate <S**2> as in Hartree-Fock theory. We will do it anyways
         but you should keep in mind that the values have only limited relevance

Expectation value of <S**2>     :     0.752508
Ideal value S*(S+1) for S=0.5   :     0.750000
Deviation                       :     0.002508

             **** THE GBW FILE WAS UPDATED (path_opt6_orca.gbw) ****
             **** DENSITY path_opt6_orca.scfp WAS UPDATED ****
----------------
ORBITAL ENERGIES
----------------
                 SPIN UP ORBITALS
  NO   OCC          E(Eh)            E(eV) 
   0   1.0000     -19.236042      -523.4393 
   1   1.0000     -19.225858      -523.1622 
   2   1.0000     -10.287728      -279.9433 
   3   1.0000     -10.287198      -279.9289 
   4   1.0000     -10.241410      -278.6829 
   5   1.0000     -10.235380      -278.5189 
   6   1.0000     -10.230923      -278.3976 
   7   1.0000      -1.138371       -30.9767 
   8   1.0000      -1.002016       -27.2662 
   9   1.0000      -0.835759       -22.7422 
  10   1.0000      -0.747373       -20.3370 
  11   1.0000      -0.677054       -18.4236 
  12   1.0000      -0.598397       -16.2832 
  13   1.0000      -0.569103       -15.4861 
  14   1.0000      -0.557528       -15.1711 
  15   1.0000      -0.470433       -12.8011 
  16   1.0000      -0.468037       -12.7359 
  17   1.0000      -0.461304       -12.5527 
  18   1.0000      -0.436421       -11.8756 
  19   1.0000      -0.410886       -11.1808 
  20   1.0000      -0.400449       -10.8968 
  21   1.0000      -0.389284       -10.5929 
  22   1.0000      -0.370901       -10.0927 
  23   1.0000      -0.324136        -8.8202 
  24   1.0000      -0.320599        -8.7239 
  25   1.0000      -0.302802        -8.2397 
  26   1.0000      -0.240991        -6.5577 
  27   0.0000       0.002157         0.0587 
  28   0.0000       0.080716         2.1964 
  29   0.0000       0.102631         2.7927 
  30   0.0000       0.111519         3.0346 
  31   0.0000       0.120475         3.2783 
  32   0.0000       0.133276         3.6266 
  33   0.0000       0.146295         3.9809 
  34   0.0000       0.146590         3.9889 
  35   0.0000       0.156975         4.2715 
  36   0.0000       0.176081         4.7914 
  37   0.0000       0.213517         5.8101 
  38   0.0000       0.226509         6.1636 
  39   0.0000       0.310864         8.4590 
  40   0.0000       0.321170         8.7395 
  41   0.0000       0.393768        10.7150 
  42   0.0000       0.405610        11.0372 
  43   0.0000       0.459851        12.5132 
  44   0.0000       0.484258        13.1773 
  45   0.0000       0.484811        13.1924 
  46   0.0000       0.506253        13.7758 
  47   0.0000       0.524089        14.2612 
  48   0.0000       0.543669        14.7940 
  49   0.0000       0.563184        15.3250 
  50   0.0000       0.577699        15.7200 
  51   0.0000       0.609362        16.5816 
  52   0.0000       0.620230        16.8773 
  53   0.0000       0.641038        17.4435 
  54   0.0000       0.641634        17.4598 
  55   0.0000       0.663815        18.0633 
  56   0.0000       0.676598        18.4112 
  57   0.0000       0.685828        18.6623 
  58   0.0000       0.688293        18.7294 
  59   0.0000       0.693351        18.8670 
  60   0.0000       0.710783        19.3414 
  61   0.0000       0.731074        19.8935 
  62   0.0000       0.766663        20.8620 
  63   0.0000       0.811280        22.0760 
  64   0.0000       0.852391        23.1947 
  65   0.0000       0.894457        24.3394 
  66   0.0000       0.923285        25.1239 
  67   0.0000       0.968041        26.3417 
  68   0.0000       0.997789        27.1512 
  69   0.0000       1.022943        27.8357 
  70   0.0000       1.041743        28.3473 
  71   0.0000       1.062409        28.9096 
  72   0.0000       1.072605        29.1871 
  73   0.0000       1.126339        30.6492 
  74   0.0000       1.203131        32.7389 
  75   0.0000       1.234471        33.5917 
  76   0.0000       1.323677        36.0191 
  77   0.0000       1.353454        36.8293 
  78   0.0000       1.426858        38.8268 
  79   0.0000       1.462109        39.7860 
  80   0.0000       1.474033        40.1105 
  81   0.0000       1.498739        40.7828 
  82   0.0000       1.551095        42.2074 
  83   0.0000       1.559773        42.4436 
  84   0.0000       1.616139        43.9774 
  85   0.0000       1.638199        44.5777 
  86   0.0000       1.664204        45.2853 
  87   0.0000       1.707538        46.4645 
  88   0.0000       1.711444        46.5708 
  89   0.0000       1.752460        47.6869 
  90   0.0000       1.768139        48.1135 
  91   0.0000       1.786057        48.6011 
  92   0.0000       1.821252        49.5588 
  93   0.0000       1.839371        50.0518 
  94   0.0000       1.871155        50.9167 
  95   0.0000       1.889694        51.4212 
  96   0.0000       1.960994        53.3614 
  97   0.0000       1.969695        53.5981 
  98   0.0000       2.008673        54.6588 
  99   0.0000       2.012431        54.7610 
 100   0.0000       2.036254        55.4093 
 101   0.0000       2.102250        57.2051 
 102   0.0000       2.135285        58.1041 
 103   0.0000       2.179089        59.2960 
 104   0.0000       2.204676        59.9923 
 105   0.0000       2.242323        61.0167 
 106   0.0000       2.280205        62.0475 
 107   0.0000       2.295919        62.4751 
 108   0.0000       2.307336        62.7858 
 109   0.0000       2.390603        65.0516 
 110   0.0000       2.435137        66.2634 
 111   0.0000       2.496718        67.9392 
 112   0.0000       2.523197        68.6597 
 113   0.0000       2.597379        70.6783 
 114   0.0000       2.633063        71.6493 
 115   0.0000       2.652669        72.1828 
 116   0.0000       2.668024        72.6006 
 117   0.0000       2.737821        74.4999 
 118   0.0000       2.756437        75.0065 
 119   0.0000       2.789030        75.8934 
 120   0.0000       2.834309        77.1255 
 121   0.0000       2.898176        78.8634 
 122   0.0000       2.914252        79.3008 
 123   0.0000       2.982672        81.1626 
 124   0.0000       2.998128        81.5832 
 125   0.0000       3.026575        82.3573 
 126   0.0000       3.068436        83.4964 
 127   0.0000       3.111672        84.6729 
 128   0.0000       3.199191        87.0544 
 129   0.0000       3.378304        91.9283 
 130   0.0000       3.408662        92.7544 
 131   0.0000       3.493958        95.0754 
 132   0.0000       3.756557       102.2211 

                 SPIN DOWN ORBITALS
  NO   OCC          E(Eh)            E(eV) 
   0   1.0000     -19.223262      -523.0916 
   1   1.0000     -19.210338      -522.7399 
   2   1.0000     -10.287773      -279.9445 
   3   1.0000     -10.287216      -279.9294 
   4   1.0000     -10.241414      -278.6831 
   5   1.0000     -10.235276      -278.5160 
   6   1.0000     -10.230803      -278.3943 
   7   1.0000      -1.134925       -30.8829 
   8   1.0000      -0.931185       -25.3388 
   9   1.0000      -0.834672       -22.7126 
  10   1.0000      -0.747179       -20.3318 
  11   1.0000      -0.675718       -18.3872 
  12   1.0000      -0.598033       -16.2733 
  13   1.0000      -0.567182       -15.4338 
  14   1.0000      -0.556009       -15.1298 
  15   1.0000      -0.468521       -12.7491 
  16   1.0000      -0.467338       -12.7169 
  17   1.0000      -0.436107       -11.8671 
  18   1.0000      -0.432699       -11.7743 
  19   1.0000      -0.405085       -11.0229 
  20   1.0000      -0.398179       -10.8350 
  21   1.0000      -0.373272       -10.1573 
  22   1.0000      -0.323039        -8.7903 
  23   1.0000      -0.300367        -8.1734 
  24   1.0000      -0.294603        -8.0166 
  25   1.0000      -0.239734        -6.5235 
  26   0.0000      -0.111284        -3.0282 
  27   0.0000       0.002863         0.0779 
  28   0.0000       0.082415         2.2426 
  29   0.0000       0.106168         2.8890 
  30   0.0000       0.113254         3.0818 
  31   0.0000       0.121178         3.2974 
  32   0.0000       0.134448         3.6585 
  33   0.0000       0.146637         3.9902 
  34   0.0000       0.147150         4.0042 
  35   0.0000       0.157389         4.2828 
  36   0.0000       0.179440         4.8828 
  37   0.0000       0.214292         5.8312 
  38   0.0000       0.226909         6.1745 
  39   0.0000       0.311142         8.4666 
  40   0.0000       0.321831         8.7575 
  41   0.0000       0.394269        10.7286 
  42   0.0000       0.405811        11.0427 
  43   0.0000       0.460178        12.5221 
  44   0.0000       0.484571        13.1858 
  45   0.0000       0.485906        13.2222 
  46   0.0000       0.506943        13.7946 
  47   0.0000       0.525852        14.3092 
  48   0.0000       0.547612        14.9013 
  49   0.0000       0.565166        15.3790 
  50   0.0000       0.578061        15.7298 
  51   0.0000       0.609978        16.5984 
  52   0.0000       0.621745        16.9185 
  53   0.0000       0.642045        17.4709 
  54   0.0000       0.643400        17.5078 
  55   0.0000       0.674512        18.3544 
  56   0.0000       0.676790        18.4164 
  57   0.0000       0.686350        18.6765 
  58   0.0000       0.688786        18.7428 
  59   0.0000       0.696925        18.9643 
  60   0.0000       0.711043        19.3485 
  61   0.0000       0.731695        19.9104 
  62   0.0000       0.768087        20.9007 
  63   0.0000       0.812691        22.1144 
  64   0.0000       0.853825        23.2338 
  65   0.0000       0.906581        24.6693 
  66   0.0000       0.957895        26.0656 
  67   0.0000       0.972820        26.4718 
  68   0.0000       1.007930        27.4272 
  69   0.0000       1.028195        27.9786 
  70   0.0000       1.060494        28.8575 
  71   0.0000       1.074221        29.2310 
  72   0.0000       1.098465        29.8907 
  73   0.0000       1.130863        30.7723 
  74   0.0000       1.207968        32.8705 
  75   0.0000       1.235405        33.6171 
  76   0.0000       1.324077        36.0300 
  77   0.0000       1.355833        36.8941 
  78   0.0000       1.449246        39.4360 
  79   0.0000       1.462800        39.8048 
  80   0.0000       1.480750        40.2933 
  81   0.0000       1.503966        40.9250 
  82   0.0000       1.553183        42.2643 
  83   0.0000       1.560687        42.4685 
  84   0.0000       1.617447        44.0130 
  85   0.0000       1.639596        44.6157 
  86   0.0000       1.666403        45.3451 
  87   0.0000       1.707935        46.4753 
  88   0.0000       1.712137        46.5896 
  89   0.0000       1.752743        47.6946 
  90   0.0000       1.768869        48.1334 
  91   0.0000       1.787292        48.6347 
  92   0.0000       1.821423        49.5634 
  93   0.0000       1.839753        50.0622 
  94   0.0000       1.871508        50.9263 
  95   0.0000       1.890035        51.4305 
  96   0.0000       1.961805        53.3834 
  97   0.0000       1.969954        53.6052 
  98   0.0000       2.008884        54.6645 
  99   0.0000       2.013194        54.7818 
 100   0.0000       2.037661        55.4476 
 101   0.0000       2.102986        57.2252 
 102   0.0000       2.135663        58.1144 
 103   0.0000       2.180261        59.3279 
 104   0.0000       2.205006        60.0013 
 105   0.0000       2.243166        61.0397 
 106   0.0000       2.281017        62.0696 
 107   0.0000       2.296681        62.4959 
 108   0.0000       2.325976        63.2930 
 109   0.0000       2.390849        65.0583 
 110   0.0000       2.436110        66.2899 
 111   0.0000       2.497874        67.9706 
 112   0.0000       2.523614        68.6710 
 113   0.0000       2.607140        70.9439 
 114   0.0000       2.662068        72.4386 
 115   0.0000       2.719342        73.9971 
 116   0.0000       2.725524        74.1653 
 117   0.0000       2.741143        74.5903 
 118   0.0000       2.757608        75.0383 
 119   0.0000       2.790003        75.9198 
 120   0.0000       2.835901        77.1688 
 121   0.0000       2.900505        78.9268 
 122   0.0000       2.917642        79.3931 
 123   0.0000       2.999003        81.6070 
 124   0.0000       3.037258        82.6480 
 125   0.0000       3.054448        83.1158 
 126   0.0000       3.069997        83.5389 
 127   0.0000       3.114223        84.7423 
 128   0.0000       3.201313        87.1122 
 129   0.0000       3.382517        92.0430 
 130   0.0000       3.409165        92.7681 
 131   0.0000       3.495104        95.1066 
 132   0.0000       3.780893       102.8833 

                    ********************************
                    * MULLIKEN POPULATION ANALYSIS *
                    ********************************

--------------------------------------------
MULLIKEN ATOMIC CHARGES AND SPIN POPULATIONS
--------------------------------------------
   0 O :   -0.204001    0.956589
   1 O :   -0.317590    0.062887
   2 C :   -0.009272   -0.003689
   3 C :    0.070028   -0.003983
   4 C :    0.026257    0.008014
   5 C :   -0.140241    0.003034
   6 C :    0.114425   -0.000446
   7 H :    0.166804   -0.023201
   8 H :    0.060734    0.001027
   9 H :    0.052964    0.000211
  10 H :    0.032737   -0.000385
  11 H :    0.032771    0.000167
  12 H :    0.056938   -0.000173
  13 H :    0.057445   -0.000051
Sum of atomic charges         :   -0.0000000
Sum of atomic spin populations:    1.0000000

-----------------------------------------------------
MULLIKEN REDUCED ORBITAL CHARGES AND SPIN POPULATIONS
-----------------------------------------------------
CHARGE
  0 O s       :     3.846676  s :     3.846676
      pz      :     1.468376  p :     4.350144
      px      :     1.376439
      py      :     1.505329
      dz2     :     0.000440  d :     0.007181
      dxz     :     0.000620
      dyz     :     0.003472
      dx2y2   :     0.001919
      dxy     :     0.000729
  1 O s       :     3.855441  s :     3.855441
      pz      :     1.415511  p :     4.439684
      px      :     1.662999
      py      :     1.361174
      dz2     :     0.005568  d :     0.022465
      dxz     :     0.002881
      dyz     :     0.006075
      dx2y2   :     0.004141
      dxy     :     0.003799
  2 C s       :     3.233523  s :     3.233523
      pz      :     0.783071  p :     2.700089
      px      :     0.978356
      py      :     0.938663
      dz2     :     0.020478  d :     0.075660
      dxz     :     0.017655
      dyz     :     0.019275
      dx2y2   :     0.008316
      dxy     :     0.009936
  3 C s       :     3.199606  s :     3.199606
      pz      :     0.961153  p :     2.656951
      px      :     0.928648
      py      :     0.767150
      dz2     :     0.008900  d :     0.073414
      dxz     :     0.010383
      dyz     :     0.014136
      dx2y2   :     0.020808
      dxy     :     0.019187
  4 C s       :     3.149511  s :     3.149511
      pz      :     0.985074  p :     2.789341
      px      :     0.849593
      py      :     0.954674
      dz2     :     0.005695  d :     0.034892
      dxz     :     0.007871
      dyz     :     0.004866
      dx2y2   :     0.008440
      dxy     :     0.008020
  5 C s       :     3.212140  s :     3.212140
      pz      :     0.975788  p :     2.890033
      px      :     0.951890
      py      :     0.962355
      dz2     :     0.007635  d :     0.038068
      dxz     :     0.007426
      dyz     :     0.005653
      dx2y2   :     0.008134
      dxy     :     0.009220
  6 C s       :     2.926637  s :     2.926637
      pz      :     0.987717  p :     2.922424
      px      :     0.934824
      py      :     0.999883
      dz2     :     0.008266  d :     0.036514
      dxz     :     0.008149
      dyz     :     0.005605
      dx2y2   :     0.007500
      dxy     :     0.006994
  7 H s       :     0.761577  s :     0.761577
      pz      :     0.022846  p :     0.071619
      px      :     0.016914
      py      :     0.031858
  8 H s       :     0.916359  s :     0.916359
      pz      :     0.002518  p :     0.022907
      px      :     0.015218
      py      :     0.005171
  9 H s       :     0.923979  s :     0.923979
      pz      :     0.007671  p :     0.023057
      px      :     0.004420
      py      :     0.010966
 10 H s       :     0.942896  s :     0.942896
      pz      :     0.007872  p :     0.024368
      px      :     0.011565
      py      :     0.004930
 11 H s       :     0.943657  s :     0.943657
      pz      :     0.004842  p :     0.023572
      px      :     0.010450
      py      :     0.008280
 12 H s       :     0.919895  s :     0.919895
      pz      :     0.012855  p :     0.023167
      px      :     0.004350
      py      :     0.005962
 13 H s       :     0.919538  s :     0.919538
      pz      :     0.004284  p :     0.023017
      px      :     0.005460
      py      :     0.013273

SPIN
  0 O s       :     0.014841  s :     0.014841
      pz      :     0.295459  p :     0.941385
      px      :     0.574903
      py      :     0.071024
      dz2     :     0.000126  d :     0.000363
      dxz     :     0.000131
      dyz     :    -0.000057
      dx2y2   :    -0.000077
      dxy     :     0.000241
  1 O s       :     0.002555  s :     0.002555
      pz      :     0.011727  p :     0.060288
      px      :     0.041693
      py      :     0.006868
      dz2     :    -0.000027  d :     0.000044
      dxz     :     0.000092
      dyz     :     0.000002
      dx2y2   :     0.000031
      dxy     :    -0.000054
  2 C s       :     0.000213  s :     0.000213
      pz      :    -0.003333  p :    -0.004059
      px      :     0.000008
      py      :    -0.000734
      dz2     :     0.000109  d :     0.000158
      dxz     :    -0.000044
      dyz     :    -0.000033
      dx2y2   :     0.000011
      dxy     :     0.000115
  3 C s       :     0.000061  s :     0.000061
      pz      :    -0.000867  p :    -0.004146
      px      :    -0.000871
      py      :    -0.002408
      dz2     :     0.000020  d :     0.000102
      dxz     :    -0.000013
      dyz     :     0.000013
      dx2y2   :     0.000064
      dxy     :     0.000018
  4 C s       :     0.000819  s :     0.000819
      pz      :     0.003272  p :     0.007201
      px      :     0.001015
      py      :     0.002914
      dz2     :    -0.000005  d :    -0.000006
      dxz     :     0.000001
      dyz     :    -0.000017
      dx2y2   :     0.000027
      dxy     :    -0.000012
  5 C s       :     0.000735  s :     0.000735
      pz      :     0.000693  p :     0.002251
      px      :     0.000673
      py      :     0.000885
      dz2     :     0.000036  d :     0.000048
      dxz     :     0.000022
      dyz     :     0.000006
      dx2y2   :    -0.000005
      dxy     :    -0.000011
  6 C s       :     0.000014  s :     0.000014
      pz      :     0.000311  p :    -0.000457
      px      :    -0.000443
      py      :    -0.000325
      dz2     :    -0.000032  d :    -0.000003
      dxz     :     0.000025
      dyz     :    -0.000006
      dx2y2   :    -0.000003
      dxy     :     0.000013
  7 H s       :    -0.030457  s :    -0.030457
      pz      :     0.002716  p :     0.007255
      px      :     0.004419
      py      :     0.000120
  8 H s       :     0.000992  s :     0.000992
      pz      :    -0.000002  p :     0.000035
      px      :     0.000038
      py      :    -0.000002
  9 H s       :     0.000194  s :     0.000194
      pz      :    -0.000005  p :     0.000018
      px      :     0.000029
      py      :    -0.000006
 10 H s       :    -0.000430  s :    -0.000430
      pz      :     0.000037  p :     0.000045
      px      :    -0.000001
      py      :     0.000009
 11 H s       :     0.000136  s :     0.000136
      pz      :     0.000009  p :     0.000031
      px      :     0.000000
      py      :     0.000022
 12 H s       :    -0.000172  s :    -0.000172
      pz      :     0.000000  p :    -0.000001
      px      :    -0.000003
      py      :     0.000002
 13 H s       :    -0.000049  s :    -0.000049
      pz      :    -0.000001  p :    -0.000002
      px      :    -0.000001
      py      :    -0.000000


                     *******************************
                     * LOEWDIN POPULATION ANALYSIS *
                     *******************************

-------------------------------------------
LOEWDIN ATOMIC CHARGES AND SPIN POPULATIONS
-------------------------------------------
   0 O :   -0.078517    0.918391
   1 O :   -0.128460    0.065933
   2 C :    0.046228   -0.000612
   3 C :    0.045155   -0.001953
   4 C :   -0.053209    0.006454
   5 C :   -0.014359    0.003084
   6 C :   -0.046890   -0.000368
   7 H :    0.033205    0.008288
   8 H :    0.026651    0.000631
   9 H :    0.027707    0.000200
  10 H :    0.031626    0.000060
  11 H :    0.027584    0.000126
  12 H :    0.040051   -0.000164
  13 H :    0.043227   -0.000072

----------------------------------------------------
LOEWDIN REDUCED ORBITAL CHARGES AND SPIN POPULATIONS
----------------------------------------------------
CHARGE
  0 O s       :     3.653620  s :     3.653620
      pz      :     1.485744  p :     4.412179
      px      :     1.355674
      py      :     1.570761
      dz2     :     0.000144  d :     0.012718
      dxz     :     0.000714
      dyz     :     0.007338
      dx2y2   :     0.003636
      dxy     :     0.000886
  1 O s       :     3.533995  s :     3.533995
      pz      :     1.467460  p :     4.556700
      px      :     1.655755
      py      :     1.433485
      dz2     :     0.009123  d :     0.037765
      dxz     :     0.004395
      dyz     :     0.011341
      dx2y2   :     0.006750
      dxy     :     0.006155
  2 C s       :     2.856205  s :     2.856205
      pz      :     0.876632  p :     2.931300
      px      :     1.053281
      py      :     1.001388
      dz2     :     0.040570  d :     0.166266
      dxz     :     0.041968
      dyz     :     0.043471
      dx2y2   :     0.017131
      dxy     :     0.023125
  3 C s       :     2.859473  s :     2.859473
      pz      :     1.025941  p :     2.933365
      px      :     1.003793
      py      :     0.903632
      dz2     :     0.019721  d :     0.162006
      dxz     :     0.023680
      dyz     :     0.030361
      dx2y2   :     0.049611
      dxy     :     0.038634
  4 C s       :     2.877275  s :     2.877275
      pz      :     1.033825  p :     3.085077
      px      :     1.019264
      py      :     1.031988
      dz2     :     0.012118  d :     0.090857
      dxz     :     0.020588
      dyz     :     0.013753
      dx2y2   :     0.023472
      dxy     :     0.020926
  5 C s       :     2.877013  s :     2.877013
      pz      :     1.002362  p :     3.042882
      px      :     1.004672
      py      :     1.035848
      dz2     :     0.016092  d :     0.094464
      dxz     :     0.019384
      dyz     :     0.015040
      dx2y2   :     0.020943
      dxy     :     0.023005
  6 C s       :     2.840762  s :     2.840762
      pz      :     1.038908  p :     3.111781
      px      :     1.023203
      py      :     1.049670
      dz2     :     0.021293  d :     0.094348
      dxz     :     0.022112
      dyz     :     0.013661
      dx2y2   :     0.019685
      dxy     :     0.017597
  7 H s       :     0.766069  s :     0.766069
      pz      :     0.065318  p :     0.200726
      px      :     0.045541
      py      :     0.089867
  8 H s       :     0.900793  s :     0.900793
      pz      :     0.010598  p :     0.072556
      px      :     0.044938
      py      :     0.017020
  9 H s       :     0.900228  s :     0.900228
      pz      :     0.023659  p :     0.072064
      px      :     0.015844
      py      :     0.032562
 10 H s       :     0.896896  s :     0.896896
      pz      :     0.022674  p :     0.071478
      px      :     0.034293
      py      :     0.014511
 11 H s       :     0.903074  s :     0.903074
      pz      :     0.015328  p :     0.069342
      px      :     0.031068
      py      :     0.022945
 12 H s       :     0.893284  s :     0.893284
      pz      :     0.036844  p :     0.066664
      px      :     0.013208
      py      :     0.016612
 13 H s       :     0.889777  s :     0.889777
      pz      :     0.012646  p :     0.066996
      px      :     0.016542
      py      :     0.037807

SPIN
  0 O s       :     0.009140  s :     0.009140
      pz      :     0.285451  p :     0.909202
      px      :     0.559927
      py      :     0.063823
      dz2     :     0.000032  d :     0.000049
      dxz     :     0.000178
      dyz     :    -0.000187
      dx2y2   :     0.000010
      dxy     :     0.000016
  1 O s       :     0.002027  s :     0.002027
      pz      :     0.012357  p :     0.063871
      px      :     0.044717
      py      :     0.006797
      dz2     :    -0.000037  d :     0.000035
      dxz     :     0.000080
      dyz     :     0.000007
      dx2y2   :     0.000026
      dxy     :    -0.000041
  2 C s       :     0.000254  s :     0.000254
      pz      :    -0.001147  p :    -0.001256
      px      :     0.000450
      py      :    -0.000559
      dz2     :     0.000346  d :     0.000390
      dxz     :    -0.000130
      dyz     :    -0.000075
      dx2y2   :     0.000042
      dxy     :     0.000208
  3 C s       :    -0.000060  s :    -0.000060
      pz      :    -0.000802  p :    -0.002145
      px      :     0.000120
      py      :    -0.001463
      dz2     :     0.000027  d :     0.000252
      dxz     :    -0.000014
      dyz     :     0.000051
      dx2y2   :     0.000107
      dxy     :     0.000081
  4 C s       :     0.000132  s :     0.000132
      pz      :     0.003488  p :     0.006287
      px      :     0.000649
      py      :     0.002150
      dz2     :    -0.000012  d :     0.000035
      dxz     :    -0.000010
      dyz     :    -0.000017
      dx2y2   :     0.000073
      dxy     :     0.000001
  5 C s       :     0.000563  s :     0.000563
      pz      :     0.000847  p :     0.002382
      px      :     0.001069
      py      :     0.000467
      dz2     :     0.000080  d :     0.000139
      dxz     :     0.000091
      dyz     :     0.000023
      dx2y2   :    -0.000006
      dxy     :    -0.000049
  6 C s       :    -0.000083  s :    -0.000083
      pz      :     0.000156  p :    -0.000298
      px      :    -0.000217
      py      :    -0.000238
      dz2     :    -0.000057  d :     0.000013
      dxz     :     0.000045
      dyz     :    -0.000009
      dx2y2   :    -0.000009
      dxy     :     0.000043
  7 H s       :    -0.019589  s :    -0.019589
      pz      :     0.010266  p :     0.027877
      px      :     0.014859
      py      :     0.002752
  8 H s       :     0.000543  s :     0.000543
      pz      :    -0.000078  p :     0.000088
      px      :     0.000180
      py      :    -0.000014
  9 H s       :     0.000174  s :     0.000174
      pz      :     0.000001  p :     0.000026
      px      :     0.000044
      py      :    -0.000019
 10 H s       :    -0.000133  s :    -0.000133
      pz      :     0.000105  p :     0.000193
      px      :     0.000020
      py      :     0.000068
 11 H s       :     0.000051  s :     0.000051
      pz      :     0.000032  p :     0.000075
      px      :     0.000037
      py      :     0.000006
 12 H s       :    -0.000135  s :    -0.000135
      pz      :    -0.000011  p :    -0.000029
      px      :    -0.000018
      py      :    -0.000001
 13 H s       :    -0.000060  s :    -0.000060
      pz      :     0.000004  p :    -0.000012
      px      :    -0.000007
      py      :    -0.000009


                      *****************************
                      * MAYER POPULATION ANALYSIS *
                      *****************************

  NA   - Mulliken gross atomic population
  ZA   - Total nuclear charge
  QA   - Mulliken gross atomic charge
  VA   - Mayer's total valence
  BVA  - Mayer's bonded valence
  FA   - Mayer's free valence

  ATOM       NA         ZA         QA         VA         BVA        FA
  0 O      8.2040     8.0000    -0.2040     2.0430     1.1864     0.8567
  1 O      8.3176     8.0000    -0.3176     2.0263     2.0221     0.0042
  2 C      6.0093     6.0000    -0.0093     3.9849     3.9849     0.0000
  3 C      5.9300     6.0000     0.0700     3.8953     3.8953     0.0000
  4 C      5.9737     6.0000     0.0263     3.7807     3.7806     0.0001
  5 C      6.1402     6.0000    -0.1402     4.0018     4.0018     0.0000
  6 C      5.8856     6.0000     0.1144     3.7892     3.7892     0.0000
  7 H      0.8332     1.0000     0.1668     1.0224     1.0212     0.0012
  8 H      0.9393     1.0000     0.0607     1.0083     1.0083     0.0000
  9 H      0.9470     1.0000     0.0530     1.0089     1.0089     0.0000
 10 H      0.9673     1.0000     0.0327     0.9898     0.9898     0.0000
 11 H      0.9672     1.0000     0.0328     0.9888     0.9888     0.0000
 12 H      0.9431     1.0000     0.0569     0.9813     0.9813     0.0000
 13 H      0.9426     1.0000     0.0574     0.9828     0.9828     0.0000

  Mayer bond orders larger than 0.100000
B(  0-O ,  7-H ) :   0.9960 B(  1-O ,  2-C ) :   0.9370 B(  1-O ,  3-C ) :   0.9103 
B(  2-C ,  3-C ) :   1.0170 B(  2-C ,  6-C ) :   0.9874 B(  2-C ,  8-H ) :   0.9716 
B(  3-C ,  4-C ) :   0.9600 B(  3-C ,  9-H ) :   0.9799 B(  4-C ,  5-C ) :   1.8475 
B(  4-C , 10-H ) :   0.9943 B(  5-C ,  6-C ) :   1.0199 B(  5-C , 11-H ) :   0.9685 
B(  6-C , 12-H ) :   0.9246 B(  6-C , 13-H ) :   0.9269 


------------------
HIRSHFELD ANALYSIS
------------------

[...]
      pz      :     0.969383  p :     2.882988
      px      :     0.953265
      py      :     0.960340
      dz2     :     0.007569  d :     0.038643
      dxz     :     0.007540
      dyz     :     0.005749
      dx2y2   :     0.008119
      dxy     :     0.009666
  6 C s       :     2.925308  s :     2.925308
      pz      :     0.980523  p :     2.925516
      px      :     0.939776
      py      :     1.005216
      dz2     :     0.007911  d :     0.036164
      dxz     :     0.008397
      dyz     :     0.005802
      dx2y2   :     0.007281
      dxy     :     0.006773
  7 H s       :     0.748046  s :     0.748046
      pz      :     0.020599  p :     0.066601
      px      :     0.015173
      py      :     0.030829
  8 H s       :     0.918807  s :     0.918807
      pz      :     0.002508  p :     0.022617
      px      :     0.015246
      py      :     0.004863
  9 H s       :     0.925093  s :     0.925093
      pz      :     0.007789  p :     0.022884
      px      :     0.004288
      py      :     0.010806
 10 H s       :     0.939515  s :     0.939515
      pz      :     0.007862  p :     0.024452
      px      :     0.011669
      py      :     0.004921
 11 H s       :     0.947631  s :     0.947631
      pz      :     0.004769  p :     0.023431
      px      :     0.010330
      py      :     0.008332
 12 H s       :     0.914092  s :     0.914092
      pz      :     0.012856  p :     0.023229
      px      :     0.004377
      py      :     0.005996
 13 H s       :     0.918482  s :     0.918482
      pz      :     0.004270  p :     0.023123
      px      :     0.005527
      py      :     0.013327

SPIN
  0 O s       :     0.014078  s :     0.014078
      pz      :     0.306565  p :     0.950424
      px      :     0.578130
      py      :     0.065729
      dz2     :     0.000108  d :     0.000337
      dxz     :     0.000124
      dyz     :    -0.000043
      dx2y2   :    -0.000071
      dxy     :     0.000219
  1 O s       :     0.002448  s :     0.002448
      pz      :     0.010179  p :     0.056207
      px      :     0.038749
      py      :     0.007278
      dz2     :    -0.000029  d :     0.000049
      dxz     :     0.000091
      dyz     :     0.000005
      dx2y2   :     0.000036
      dxy     :    -0.000054
  2 C s       :     0.000179  s :     0.000179
      pz      :    -0.003289  p :    -0.003878
      px      :     0.000002
      py      :    -0.000592
      dz2     :     0.000089  d :     0.000156
      dxz     :    -0.000009
      dyz     :    -0.000024
      dx2y2   :     0.000004
      dxy     :     0.000097
  3 C s       :     0.000075  s :     0.000075
      pz      :    -0.000937  p :    -0.004288
      px      :    -0.001104
      py      :    -0.002247
      dz2     :     0.000018  d :     0.000101
      dxz     :    -0.000003
      dyz     :     0.000004
      dx2y2   :     0.000074
      dxy     :     0.000009
  4 C s       :     0.001173  s :     0.001173
      pz      :     0.004096  p :     0.008703
      px      :     0.000937
      py      :     0.003670
      dz2     :    -0.000011  d :    -0.000034
      dxz     :    -0.000001
      dyz     :    -0.000021
      dx2y2   :     0.000016
      dxy     :    -0.000016
  5 C s       :     0.000277  s :     0.000277
      pz      :    -0.000602  p :    -0.000487
      px      :     0.000211
      py      :    -0.000096
      dz2     :     0.000036  d :     0.000070
      dxz     :     0.000032
      dyz     :     0.000014
      dx2y2   :    -0.000002
      dxy     :    -0.000010
  6 C s       :     0.000130  s :     0.000130
      pz      :     0.000379  p :    -0.000152
      px      :    -0.000280
      py      :    -0.000250
      dz2     :    -0.000037  d :    -0.000020
      dxz     :     0.000022
      dyz     :    -0.000007
      dx2y2   :    -0.000003
      dxy     :     0.000006
  7 H s       :    -0.032567  s :    -0.032567
      pz      :     0.002405  p :     0.006044
      px      :     0.003715
      py      :    -0.000075
  8 H s       :     0.001176  s :     0.001176
      pz      :    -0.000006  p :     0.000022
      px      :     0.000030
      py      :    -0.000002
  9 H s       :     0.000232  s :     0.000232
      pz      :    -0.000006  p :     0.000011
      px      :     0.000025
      py      :    -0.000008
 10 H s       :    -0.000553  s :    -0.000553
      pz      :     0.000039  p :     0.000053
      px      :     0.000001
      py      :     0.000013
 11 H s       :     0.000329  s :     0.000329
      pz      :     0.000003  p :     0.000015
      px      :    -0.000002
      py      :     0.000014
 12 H s       :    -0.000206  s :    -0.000206
      pz      :     0.000001  p :    -0.000001
      px      :    -0.000004
      py      :     0.000002
 13 H s       :    -0.000103  s :    -0.000103
      pz      :    -0.000000  p :    -0.000001
      px      :    -0.000000
      py      :    -0.000000


                     *******************************
                     * LOEWDIN POPULATION ANALYSIS *
                     *******************************

-------------------------------------------
LOEWDIN ATOMIC CHARGES AND SPIN POPULATIONS
-------------------------------------------
   0 O :   -0.104326    0.930540
   1 O :   -0.142449    0.061819
   2 C :    0.048679   -0.000644
   3 C :    0.050526   -0.002129
   4 C :   -0.058728    0.007664
   5 C :   -0.003863    0.000643
   6 C :   -0.048067   -0.000200
   7 H :    0.060182    0.001479
   8 H :    0.024822    0.000711
   9 H :    0.027112    0.000230
  10 H :    0.033843    0.000021
  11 H :    0.023904    0.000166
  12 H :    0.043646   -0.000198
  13 H :    0.044720   -0.000103

----------------------------------------------------
LOEWDIN REDUCED ORBITAL CHARGES AND SPIN POPULATIONS
----------------------------------------------------
CHARGE
  0 O s       :     3.687493  s :     3.687493
      pz      :     1.487002  p :     4.405664
      px      :     1.358596
      py      :     1.560066
      dz2     :     0.000175  d :     0.011169
      dxz     :     0.000689
      dyz     :     0.006078
      dx2y2   :     0.003352
      dxy     :     0.000874
  1 O s       :     3.544291  s :     3.544291
      pz      :     1.454369  p :     4.562487
      px      :     1.665288
      py      :     1.442830
      dz2     :     0.009015  d :     0.035672
      dxz     :     0.004181
      dyz     :     0.010775
      dx2y2   :     0.005885
      dxy     :     0.005817
  2 C s       :     2.852470  s :     2.852470
      pz      :     0.876638  p :     2.931283
      px      :     1.053029
      py      :     1.001616
      dz2     :     0.042128  d :     0.167568
      dxz     :     0.041928
      dyz     :     0.043311
      dx2y2   :     0.017895
      dxy     :     0.022306
  3 C s       :     2.857805  s :     2.857805
      pz      :     1.021883  p :     2.930889
      px      :     1.006523
      py      :     0.902483
      dz2     :     0.019050  d :     0.160780
      dxz     :     0.024743
      dyz     :     0.030438
      dx2y2   :     0.047401
      dxy     :     0.039147
  4 C s       :     2.875090  s :     2.875090
      pz      :     1.034746  p :     3.093196
      px      :     1.023272
      py      :     1.035178
      dz2     :     0.011794  d :     0.090442
      dxz     :     0.020283
      dyz     :     0.013423
      dx2y2   :     0.024316
      dxy     :     0.020627
  5 C s       :     2.880894  s :     2.880894
      pz      :     0.992877  p :     3.028037
      px      :     0.999501
      py      :     1.035658
      dz2     :     0.015904  d :     0.094932
      dxz     :     0.019473
      dyz     :     0.014825
      dx2y2   :     0.020716
      dxy     :     0.024014
  6 C s       :     2.838560  s :     2.838560
      pz      :     1.037009  p :     3.115574
      px      :     1.026144
      py      :     1.052421
      dz2     :     0.020478  d :     0.093934
      dxz     :     0.022937
      dyz     :     0.014294
      dx2y2   :     0.019163
      dxy     :     0.017062
  7 H s       :     0.759473  s :     0.759473
      pz      :     0.056963  p :     0.180345
      px      :     0.039132
      py      :     0.084250
  8 H s       :     0.903208  s :     0.903208
      pz      :     0.010791  p :     0.071970
      px      :     0.044836
      py      :     0.016343
  9 H s       :     0.901301  s :     0.901301
      pz      :     0.023854  p :     0.071587
      px      :     0.015498
      py      :     0.032235
 10 H s       :     0.894438  s :     0.894438
      pz      :     0.022835  p :     0.071719
      px      :     0.034303
      py      :     0.014581
 11 H s       :     0.906660  s :     0.906660
      pz      :     0.015260  p :     0.069437
      px      :     0.031016
      py      :     0.023161
 12 H s       :     0.889614  s :     0.889614
      pz      :     0.036661  p :     0.066740
      px      :     0.013341
      py      :     0.016738
 13 H s       :     0.888191  s :     0.888191
      pz      :     0.012467  p :     0.067088
      px      :     0.016825
      py      :     0.037797

SPIN
  0 O s       :     0.009135  s :     0.009135
      pz      :     0.297657  p :     0.921314
      px      :     0.565296
      py      :     0.058361
      dz2     :     0.000034  d :     0.000090
      dxz     :     0.000191
      dyz     :    -0.000170
      dx2y2   :     0.000025
      dxy     :     0.000010
  1 O s       :     0.002175  s :     0.002175
      pz      :     0.010737  p :     0.059604
      px      :     0.041600
      py      :     0.007267
      dz2     :    -0.000039  d :     0.000040
      dxz     :     0.000080
      dyz     :     0.000009
      dx2y2   :     0.000032
      dxy     :    -0.000042
  2 C s       :     0.000177  s :     0.000177
      pz      :    -0.001161  p :    -0.001197
      px      :     0.000383
      py      :    -0.000419
      dz2     :     0.000300  d :     0.000375
      dxz     :    -0.000063
      dyz     :    -0.000063
      dx2y2   :     0.000027
      dxy     :     0.000174
  3 C s       :    -0.000091  s :    -0.000091
      pz      :    -0.000850  p :    -0.002278
      px      :    -0.000060
      py      :    -0.001368
      dz2     :     0.000026  d :     0.000241
      dxz     :     0.000007
      dyz     :     0.000030
      dx2y2   :     0.000123
      dxy     :     0.000055
  4 C s       :     0.000191  s :     0.000191
      pz      :     0.004194  p :     0.007511
      px      :     0.000576
      py      :     0.002741
      dz2     :    -0.000025  d :    -0.000038
      dxz     :    -0.000014
      dyz     :    -0.000026
      dx2y2   :     0.000043
      dxy     :    -0.000016
  5 C s       :     0.000425  s :     0.000425
      pz      :    -0.000327  p :     0.000018
      px      :     0.000636
      py      :    -0.000291
      dz2     :     0.000087  d :     0.000199
      dxz     :     0.000114
      dyz     :     0.000035
      dx2y2   :     0.000004
      dxy     :    -0.000041
  6 C s       :    -0.000042  s :    -0.000042
      pz      :     0.000198  p :    -0.000125
      px      :    -0.000130
      py      :    -0.000194
      dz2     :    -0.000070  d :    -0.000034
      dxz     :     0.000035
      dyz     :    -0.000013
      dx2y2   :    -0.000012
      dxy     :     0.000026
  7 H s       :    -0.021869  s :    -0.021869
      pz      :     0.008892  p :     0.023348
      px      :     0.012155
      py      :     0.002301
  8 H s       :     0.000653  s :     0.000653
      pz      :    -0.000084  p :     0.000059
      px      :     0.000159
      py      :    -0.000016
  9 H s       :     0.000223  s :     0.000223
      pz      :    -0.000004  p :     0.000008
      px      :     0.000028
      py      :    -0.000017
 10 H s       :    -0.000206  s :    -0.000206
      pz      :     0.000119  p :     0.000227
      px      :     0.000024
      py      :     0.000084
 11 H s       :     0.000154  s :     0.000154
      pz      :     0.000005  p :     0.000012
      px      :     0.000023
      py      :    -0.000016
 12 H s       :    -0.000175  s :    -0.000175
      pz      :    -0.000006  p :    -0.000023
      px      :    -0.000017
      py      :    -0.000000
 13 H s       :    -0.000097  s :    -0.000097
      pz      :     0.000005  p :    -0.000006
      px      :    -0.000003
      py      :    -0.000008


                      *****************************
                      * MAYER POPULATION ANALYSIS *
                      *****************************

  NA   - Mulliken gross atomic population
  ZA   - Total nuclear charge
  QA   - Mulliken gross atomic charge
  VA   - Mayer's total valence
  BVA  - Mayer's bonded valence
  FA   - Mayer's free valence

  ATOM       NA         ZA         QA         VA         BVA        FA
  0 O      8.2199     8.0000    -0.2199     2.0265     1.1584     0.8681
  1 O      8.3271     8.0000    -0.3271     2.0259     2.0222     0.0037
  2 C      6.0096     6.0000    -0.0096     3.9963     3.9963     0.0000
  3 C      5.9211     6.0000     0.0789     3.8962     3.8962     0.0000
  4 C      5.9793     6.0000     0.0207     3.7737     3.7737     0.0001
  5 C      6.1379     6.0000    -0.1379     4.0001     4.0000     0.0000
  6 C      5.8870     6.0000     0.1130     3.7943     3.7943     0.0000
  7 H      0.8146     1.0000     0.1854     1.0072     1.0059     0.0013
  8 H      0.9414     1.0000     0.0586     1.0080     1.0079     0.0000
  9 H      0.9480     1.0000     0.0520     1.0088     1.0088     0.0000
 10 H      0.9640     1.0000     0.0360     0.9901     0.9901     0.0000
 11 H      0.9711     1.0000     0.0289     0.9879     0.9879     0.0000
 12 H      0.9373     1.0000     0.0627     0.9817     0.9817     0.0000
 13 H      0.9416     1.0000     0.0584     0.9831     0.9831     0.0000

  Mayer bond orders larger than 0.100000
B(  0-O ,  7-H ) :   0.9801 B(  1-O ,  2-C ) :   0.9391 B(  1-O ,  3-C ) :   0.9066 
B(  2-C ,  3-C ) :   1.0144 B(  2-C ,  6-C ) :   0.9957 B(  2-C ,  8-H ) :   0.9702 
B(  3-C ,  4-C ) :   0.9697 B(  3-C ,  9-H ) :   0.9807 B(  4-C ,  5-C ) :   1.8340 
B(  4-C , 10-H ) :   0.9949 B(  5-C ,  6-C ) :   1.0201 B(  5-C , 11-H ) :   0.9660 
B(  6-C , 12-H ) :   0.9239 B(  6-C , 13-H ) :   0.9240 


------------------
HIRSHFELD ANALYSIS
------------------

Total integrated alpha density =     27.000009168
Total integrated beta density  =     26.000008826

  ATOM     CHARGE      SPIN    
   0 O   -0.199752    0.892804
   1 O   -0.169792    0.063646
   2 C    0.047371    0.002715
   3 C    0.041635    0.001738
   4 C   -0.055823    0.006501
   5 C   -0.023047    0.001958
   6 C   -0.042100    0.000119
   7 H    0.152364    0.026454
   8 H    0.045134    0.002207
   9 H    0.048115    0.001431
  10 H    0.046424    0.000461
  11 H    0.031202    0.000199
  12 H    0.038908   -0.000153
  13 H    0.039343   -0.000080

  TOTAL  -0.000018    1.000000

-------
TIMINGS
-------

Total SCF time: 0 days 0 hours 0 min 5 sec 

Total time                  ....       5.627 sec
Sum of individual times     ....       5.500 sec  ( 97.7%)

Fock matrix formation       ....       4.789 sec  ( 85.1%)
  Split-RI-J                ....       0.438 sec  (  9.1% of F)
  Chain of spheres X        ....       3.350 sec  ( 70.0% of F)
  XC integration            ....       0.965 sec  ( 20.1% of F)
    Basis function eval.    ....       0.274 sec  ( 28.4% of XC)
    Density eval.           ....       0.247 sec  ( 25.6% of XC)
    XC-Functional eval.     ....       0.093 sec  (  9.6% of XC)
    XC-Potential eval.      ....       0.242 sec  ( 25.1% of XC)
Diagonalization             ....       0.079 sec  (  1.4%)
Density matrix formation    ....       0.005 sec  (  0.1%)
Population analysis         ....       0.141 sec  (  2.5%)
Initial guess               ....       0.008 sec  (  0.1%)
Orbital Transformation      ....       0.000 sec  (  0.0%)
Orbital Orthonormalization  ....       0.004 sec  (  0.1%)
DIIS solution               ....       0.050 sec  (  0.9%)
Grid generation             ....       0.429 sec  (  7.6%)

Maximum memory used throughout the entire SCF-calculation: 50.6 MB


-------------------------------------------------------------------------------
                          DFT DISPERSION CORRECTION                            
                                                                               
                              DFTD3 V3.1  Rev 1                                
                          USING Becke-Johnson damping                          
-------------------------------------------------------------------------------
The PBE0 functional is recognized
Active option DFTDOPT                   ...         4   

molecular C6(AA) [au] = 1729.234759 


            DFT-D V3
 parameters
 s6 scaling factor         :     1.0000 
 a1 scaling factor         :     0.4145 
 s8 scaling factor         :     1.2177 
 a2 scaling factor         :     4.8593 
 ad hoc parameters k1-k3   :    16.0000     1.3333    -4.0000 

 Edisp/kcal,au: -6.068083319697  -0.009670105270 
 E6   /kcal   :  -3.860609265 
 E8   /kcal   :  -2.207474054 
 % E8         :  36.378440078 

-------------------------   ----------------
Dispersion correction           -0.009670105
-------------------------   ----------------


-------------------------   --------------------
FINAL SINGLE POINT ENERGY      -344.365570887698
-------------------------   --------------------

                                *** OPTIMIZATION RUN DONE ***

                            ***************************************
                            *     ORCA property calculations      *
                            ***************************************

                                    ---------------------
                                    Active property flags
                                    ---------------------
   (+) Dipole Moment


------------------------------------------------------------------------------
                       ORCA ELECTRIC PROPERTIES CALCULATION
------------------------------------------------------------------------------

Dipole Moment Calculation                       ... on
Quadrupole Moment Calculation                   ... off
Polarizability Calculation                      ... off
GBWName                                         ... path_opt6_orca.gbw
Electron density                                ... path_opt6_orca.scfp
The origin for moment calculation is the CENTER OF MASS  = (-0.310135,  0.115609  0.415357)

-------------
DIPOLE MOMENT
-------------
                                X             Y             Z
Electronic contribution:     -1.11229       0.63614       2.09555
Nuclear contribution   :      1.43538      -0.82609      -2.37429
                        -----------------------------------------
Total Dipole Moment    :      0.32309      -0.18995      -0.27875
                        -----------------------------------------
Magnitude (a.u.)       :      0.46708
Magnitude (Debye)      :      1.18724



--------------------
Rotational spectrum 
--------------------
 
Rotational constants in cm-1:     0.202900     0.065088     0.055728 
Rotational constants in MHz :  6082.800640  1951.291554  1670.678750 

 Dipole components along the rotational axes: 
x,y,z [a.u.] :     0.455000     0.085936     0.061305 
x,y,z [Debye]:     1.156518     0.218433     0.155826 

 

Timings for individual modules:

Sum of individual times         ...       58.848 sec (=   0.981 min)
GTO integral calculation        ...        2.445 sec (=   0.041 min)   4.2 %
SCF iterations                  ...       46.140 sec (=   0.769 min)  78.4 %
SCF Gradient evaluation         ...       10.069 sec (=   0.168 min)  17.1 %
Geometry relaxation             ...        0.193 sec (=   0.003 min)   0.3 %
                             ****ORCA TERMINATED NORMALLY****
TOTAL RUN TIME: 0 days 0 hours 1 minutes 0 seconds 709 msec
