      -----------------------------------------------------------      
     |                   =====================                   |     
     |                           x T B                           |     
     |                   =====================                   |     
     |                         S. Grimme                         |     
     |          Mulliken Center for Theoretical Chemistry        |     
     |                    University of Bonn                     |     
      -----------------------------------------------------------      

   * xtb version 6.6.1 (8d0f1dd) compiled by 'conda@1efc2f54142f' on 2023-08-01

   xtb is free software: you can redistribute it and/or modify it under
   the terms of the GNU Lesser General Public License as published by
   the Free Software Foundation, either version 3 of the License, or
   (at your option) any later version.
   
   xtb is distributed in the hope that it will be useful,
   but WITHOUT ANY WARRANTY; without even the implied warranty of
   MERCHANTABILITY or FITNESS FOR A PARTICULAR PURPOSE.  See the
   GNU Lesser General Public License for more details.
   
   Cite this work as:
   * C. Bannwarth, E. Caldeweyher, S. Ehlert, A. Hansen, P. Pracht,
     J. Seibert, S. Spicher, S. Grimme, WIREs Comput. Mol. Sci., 2020, 11,
     e01493. DOI: 10.1002/wcms.1493
   
   for GFN2-xTB:
   * C. Bannwarth, S. Ehlert and S. Grimme., J. Chem. Theory Comput., 2019,
     15, 1652-1671. DOI: 10.1021/acs.jctc.8b01176
   for GFN1-xTB:
   * S. Grimme, C. Bannwarth, P. Shushkov, J. Chem. Theory Comput., 2017,
     13, 1989-2009. DOI: 10.1021/acs.jctc.7b00118
   for GFN0-xTB:
   * P. Pracht, E. Caldeweyher, S. Ehlert, S. Grimme, ChemRxiv, 2019, preprint.
     DOI: 10.26434/chemrxiv.8326202.v1
   for GFN-FF:
   * S. Spicher and S. Grimme, Angew. Chem. Int. Ed., 2020, 59, 15665-15673.
     DOI: 10.1002/anie.202004239
   
   for ALPB and GBSA implicit solvation:
   * S. Ehlert, M. Stahn, S. Spicher, S. Grimme, J. Chem. Theory Comput.,
     2021, 17, 4250-4261. DOI: 10.1021/acs.jctc.1c00471
   
   for DFT-D4:
   * E. Caldeweyher, C. Bannwarth and S. Grimme, J. Chem. Phys., 2017,
     147, 034112. DOI: 10.1063/1.4993215
   * E. Caldeweyher, S. Ehlert, A. Hansen, H. Neugebauer, S. Spicher,
     C. Bannwarth and S. Grimme, J. Chem. Phys., 2019, 150, 154122.
     DOI: 10.1063/1.5090222
   * E. Caldeweyher, J.-M. Mewes, S. Ehlert and S. Grimme, Phys. Chem. Chem. Phys.
     2020, 22, 8499-8512. DOI: 10.1039/D0CP00502A
   
   for sTDA-xTB:
   * S. Grimme and C. Bannwarth, J. Chem. Phys., 2016, 145, 054103.
     DOI: 10.1063/1.4959605
   
   in the mass-spec context:
   * V. Asgeirsson, C. Bauer and S. Grimme, Chem. Sci., 2017, 8, 4879.
     DOI: 10.1039/c7sc00601b
   * J. Koopman and S. Grimme, ACS Omega 2019, 4, 12, 15120-15133.
     DOI: 10.1021/acsomega.9b02011
   
   for metadynamics refer to:
   * S. Grimme, J. Chem. Theory Comput., 2019, 155, 2847-2862
     DOI: 10.1021/acs.jctc.9b00143
   
   for SPH calculations refer to:
   * S. Spicher and S. Grimme, J. Chem. Theory Comput., 2021, 17, 1701-1714
     DOI: 10.1021/acs.jctc.0c01306
   
   with help from (in alphabetical order)
   P. Atkinson, C. Bannwarth, F. Bohle, G. Brandenburg, E. Caldeweyher
   M. Checinski, S. Dohm, S. Ehlert, S. Ehrlich, I. Gerasimov, C. Hölzer
   A. Katbashev, J. Koopman, C. Lavigne, S. Lehtola, F. März, M. Müller,
   F. Musil, H. Neugebauer, J. Pisarek, C. Plett, P. Pracht, F. Pultar,
   J. Seibert, P. Shushkov, S. Spicher, M. Stahn, M. Steiner, T. Strunk,
   J. Stückrath, T. Rose, and J. Unsleber
   
 * started run on 2025/05/23 at 12:05:44.139     

           -------------------------------------------------
          |                Calculation Setup                |
           -------------------------------------------------

          program call               : /gpfs/fs1/home/copan/code/autode-practice/.pixi/envs/default/bin/xtb path_opt0_xtb.xyz --chrg 0 --uhf 1 --opt --input xcontrol_path_opt0_xtb
          hostname                   : csed-0029
          coordinate file            : path_opt0_xtb.xyz
          omp threads                :                     8

   ID    Z sym.   atoms
    1    8 O      1, 2
    2    6 C      3-7
    3    1 H      8-14
constraining bond 2 6 to    3.1874000 Å, actual value:    3.3876187 Å
constraining bond 1 2 to    1.6266000 Å, actual value:    1.4271403 Å

           -------------------------------------------------
          |                 G F N 2 - x T B                 |
           -------------------------------------------------

        Reference                      10.1021/acs.jctc.8b01176
      * Hamiltonian:
        H0-scaling (s, p, d)           1.850000    2.230000    2.230000
        zeta-weighting                 0.500000
      * Dispersion:
        s8                             2.700000
        a1                             0.520000
        a2                             5.000000
        s9                             5.000000
      * Repulsion:
        kExp                           1.500000    1.000000
        rExp                           1.000000
      * Coulomb:
        alpha                          2.000000
        third order                    shell-resolved
        anisotropic                    true
        a3                             3.000000
        a5                             4.000000
        cn-shift                       1.200000
        cn-exp                         4.000000
        max-rad                        5.000000


          ...................................................
          :                      SETUP                      :
          :.................................................:
          :  # basis functions                  35          :
          :  # atomic orbitals                  35          :
          :  # shells                           21          :
          :  # electrons                        39          :
          :  max. iterations                   250          :
          :  Hamiltonian                  GFN2-xTB          :
          :  restarted?                      false          :
          :  GBSA solvation                  false          :
          :  PC potential                    false          :
          :  electronic temp.          300.0000000     K    :
          :  accuracy                    1.0000000          :
          :  -> integral cutoff          0.2500000E+02      :
          :  -> integral neglect         0.1000000E-07      :
          :  -> SCF convergence          0.1000000E-05 Eh   :
          :  -> wf. convergence          0.1000000E-03 e    :
          :  Broyden damping             0.4000000          :
          ...................................................

 iter      E             dE          RMSdq      gap      omega  full diag
   1    -22.4837053 -0.224837E+02  0.406E+00    3.78       0.0  T
   2    -22.4953745 -0.116692E-01  0.237E+00    3.69       1.0  T
   3    -22.4913799  0.399468E-02  0.775E-01    3.76       1.0  T
   4    -22.4949706 -0.359075E-02  0.357E-01    3.67       1.0  T
   5    -22.4968011 -0.183052E-02  0.933E-02    3.68       1.0  T
   6    -22.4968558 -0.547004E-04  0.431E-02    3.69       1.0  T
   7    -22.4968576 -0.175300E-05  0.146E-02    3.68       1.8  T
   8    -22.4968587 -0.111409E-05  0.557E-03    3.69       4.8  T
   9    -22.4968588 -0.588424E-07  0.126E-03    3.69      21.2  T
  10    -22.4968588 -0.262002E-08  0.494E-04    3.69      54.1  T
  11    -22.4968588 -0.550131E-09  0.117E-04    3.69     228.5  T

   *** convergence criteria satisfied after 11 iterations ***

         #    Occupation            Energy/Eh            Energy/eV
      -------------------------------------------------------------
         1        2.0000           -0.7177202             -19.5302
       ...           ...                  ...                  ...
        14        2.0000           -0.4627779             -12.5928
        15        2.0000           -0.4590034             -12.4901
        16        2.0000           -0.4546324             -12.3712
        17        2.0000           -0.4510747             -12.2744
        18        2.0000           -0.4322799             -11.7629
        19        2.0000           -0.4033661             -10.9762
        20        1.0000           -0.3170865              -8.6284 (HOMO)
        21                         -0.1815767              -4.9410 (LUMO)
        22                         -0.1396428              -3.7999
        23                          0.0653012               1.7769
        24                          0.0804583               2.1894
        25                          0.1138682               3.0985
       ...                                ...                  ...
        35                          0.6199383              16.8694
      -------------------------------------------------------------
                  HL-Gap            0.1355098 Eh            3.6874 eV
             Fermi-level           -0.3047790 Eh           -8.2935 eV

 SCC (total)                   0 d,  0 h,  0 min,  0.009 sec
 SCC setup                      ...        0 min,  0.000 sec (  2.068%)
 Dispersion                     ...        0 min,  0.000 sec (  1.115%)
 classical contributions        ...        0 min,  0.000 sec (  1.496%)
 integral evaluation            ...        0 min,  0.000 sec (  4.541%)
 iterations                     ...        0 min,  0.007 sec ( 78.936%)
 molecular gradient             ...        0 min,  0.001 sec (  9.461%)
 printout                       ...        0 min,  0.000 sec (  2.157%)

         :::::::::::::::::::::::::::::::::::::::::::::::::::::
         ::                     SUMMARY                     ::
         :::::::::::::::::::::::::::::::::::::::::::::::::::::
         :: total energy             -21.677453593069 Eh    ::
         :: gradient norm              3.384697434770 Eh/a0 ::
         :: HOMO-LUMO gap              3.687409606330 eV    ::
         ::.................................................::
         :: SCC energy               -22.496858753717 Eh    ::
         :: -> isotropic ES            0.029298451004 Eh    ::
         :: -> anisotropic ES         -0.005024597118 Eh    ::
         :: -> anisotropic XC          0.000488802551 Eh    ::
         :: -> dispersion             -0.008657152962 Eh    ::
         :: repulsion energy           0.248939526715 Eh    ::
         :: add. restraining           0.570453881763 Eh    ::
         :: total charge              -0.000000000000 e     ::
         :::::::::::::::::::::::::::::::::::::::::::::::::::::

      ----------------------------------------------------------- 
     |                   =====================                   |
     |                        A N C O P T                        |
     |                   =====================                   |
     |               Approximate Normal Coordinate               |
     |                Rational Function Optimizer                |
      ----------------------------------------------------------- 

          ...................................................
          :                      SETUP                      :
          :.................................................:
          :   optimization level            normal          :
          :   max. optcycles                   200          :
          :   ANC micro-cycles                  20          :
          :   degrees of freedom                36          :
          :.................................................:
          :   RF solver                   davidson          :
          :   write xtbopt.log                true          :
          :   linear?                        false          :
          :   energy convergence         0.5000000E-05 Eh   :
          :   grad. convergence          0.1000000E-02 Eh/α :
          :   maxmium RF displ.          1.0000000          :
          :   Hlow (freq-cutoff)         0.1000000E-01      :
          :   Hmax (freq-cutoff)         5.0000000          :
          :   S6 in model hess.         20.0000000          :
          ...................................................

generating ANC from model Hessian ...
Using Lindh-Hessian (1995)
 Shifting diagonal of input Hessian by   0.90548937792802087     
 Lowest  eigenvalues of input Hessian
    0.010000    0.465228    0.000000    0.000000    0.000000    0.000000
    0.000000    0.000000    0.916531    0.921011    0.925521    0.946134
    0.956500    0.958215    0.963873    0.969099    0.982921    0.997067
 Highest eigenvalues
    2.275560    2.333151    2.666136    2.797025    7.677464   11.975975


........................................................................
.............................. CYCLE    1 ..............................
........................................................................

 iter      E             dE          RMSdq      gap      omega  full diag
   1    -22.4968588 -0.224969E+02  0.512E-05    3.69       0.0  T
   2    -22.4968588 -0.207478E-11  0.319E-05    3.69     837.7  T
   3    -22.4968588 -0.235900E-11  0.251E-05    3.69    1063.4  T
     SCC iter.                  ...        0 min,  0.002 sec
     gradient                   ...        0 min,  0.001 sec
 * total energy  :   -21.6774536 Eh     change       -0.1780620E-10 Eh
   gradient norm :     3.3846977 Eh/α   predicted     0.0000000E+00 (-100.00%)
   displ. norm   :     0.5079345 α      lambda       -0.1713484E+01
   maximum displ.:     0.5017667 α      in ANC's #35, #36, #2, ...

........................................................................
.............................. CYCLE    2 ..............................
........................................................................

 iter      E             dE          RMSdq      gap      omega  full diag
   1    -22.3507091 -0.223507E+02  0.234E+00    0.97       0.0  T
   2    -22.2622634  0.884457E-01  0.344E+00    3.01       1.0  T
   3    -22.4738682 -0.211605E+00  0.721E-01    1.51       1.0  T
   4    -22.4762337 -0.236548E-02  0.446E-01    1.32       1.0  T
   5    -22.4769675 -0.733891E-03  0.172E-01    1.23       1.0  T
   6    -22.4770234 -0.558851E-04  0.102E-01    1.20       1.0  T
   7    -22.4771535 -0.130038E-03  0.315E-02    1.20       1.0  T
   8    -22.4771541 -0.613355E-06  0.141E-02    1.21       1.9  T
   9    -22.4771558 -0.168107E-05  0.544E-03    1.20       4.9  T
  10    -22.4771561 -0.304806E-06  0.174E-03    1.20      15.4  T
  11    -22.4771561 -0.897829E-08  0.108E-03    1.20      24.7  T
  12    -22.4771561 -0.845981E-08  0.589E-04    1.20      45.4  T
  13    -22.4771561 -0.248583E-08  0.179E-04    1.20     149.2  T
     SCC iter.                  ...        0 min,  0.007 sec
     gradient                   ...        0 min,  0.001 sec
 * total energy  :   -22.0555412 Eh     change       -0.3780876E+00 Eh
   gradient norm :     1.8841273 Eh/α   predicted    -0.1077779E+01 ( 185.06%)
   displ. norm   :     0.1911945 α      lambda       -0.3346384E+00
   maximum displ.:     0.1706143 α      in ANC's #35, #2, #1, ...

........................................................................
.............................. CYCLE    3 ..............................
........................................................................

 iter      E             dE          RMSdq      gap      omega  full diag
   1    -22.4814648 -0.224815E+02  0.537E-01    2.22       0.0  T
   2    -22.4851617 -0.369683E-02  0.311E-01    1.60       1.0  T
   3    -22.4855306 -0.368912E-03  0.170E-01    1.65       1.0  T
   4    -22.4855071  0.234361E-04  0.856E-02    1.61       1.0  T
   5    -22.4855540 -0.469037E-04  0.336E-02    1.61       1.0  T
   6    -22.4855630 -0.895748E-05  0.170E-02    1.62       1.6  T
   7    -22.4855651 -0.213329E-05  0.502E-03    1.62       5.3  T
   8    -22.4855652 -0.688835E-07  0.248E-03    1.62      10.8  T
   9    -22.4855652 -0.162292E-07  0.840E-04    1.62      31.8  T
  10    -22.4855652 -0.283170E-08  0.470E-04    1.62      56.9  T
     SCC iter.                  ...        0 min,  0.005 sec
     gradient                   ...        0 min,  0.001 sec
 * total energy  :   -22.2265067 Eh     change       -0.1709655E+00 Eh
   gradient norm :     0.0952738 Eh/α   predicted    -0.1734356E+00 (   1.44%)
   displ. norm   :     0.5062452 α      lambda       -0.7676377E-02
   maximum displ.:     0.5036187 α      in ANC's #1, #2, #35, ...

........................................................................
.............................. CYCLE    4 ..............................
........................................................................

 iter      E             dE          RMSdq      gap      omega  full diag
   1    -22.4683905 -0.224684E+02  0.632E-01    1.31       0.0  T
   2    -22.4686295 -0.238931E-03  0.395E-01    1.24       1.0  T
   3    -22.4685844  0.451203E-04  0.135E-01    1.31       1.0  T
   4    -22.4686754 -0.910469E-04  0.276E-02    1.26       1.0  T
   5    -22.4686810 -0.557049E-05  0.123E-02    1.27       2.2  T
   6    -22.4686808  0.199352E-06  0.647E-03    1.27       4.1  T
   7    -22.4686812 -0.425715E-06  0.213E-03    1.27      12.5  T
   8    -22.4686812 -0.406431E-07  0.847E-04    1.27      31.6  T
   9    -22.4686812 -0.290693E-08  0.265E-04    1.27     101.0  T
     SCC iter.                  ...        0 min,  0.005 sec
     gradient                   ...        0 min,  0.001 sec
 * total energy  :   -22.2177573 Eh     change        0.8749343E-02 Eh
   gradient norm :     0.3447715 Eh/α   predicted    -0.4821846E-02 (-155.11%)
   displ. norm   :     0.2907567 α      lambda       -0.3823080E-01
   maximum displ.:     0.2763821 α      in ANC's #1, #2, #25, ...

........................................................................
.............................. CYCLE    5 ..............................
........................................................................

 iter      E             dE          RMSdq      gap      omega  full diag
   1    -22.4903199 -0.224903E+02  0.387E-01    1.98       0.0  T
   2    -22.4904675 -0.147638E-03  0.244E-01    1.85       1.0  T
   3    -22.4902975  0.170065E-03  0.140E-01    1.85       1.0  T
   4    -22.4904984 -0.200957E-03  0.415E-02    1.83       1.0  T
   5    -22.4905189 -0.204582E-04  0.126E-02    1.83       2.1  T
   6    -22.4905194 -0.528317E-06  0.672E-03    1.83       4.0  T
   7    -22.4905195 -0.768270E-07  0.253E-03    1.84      10.6  T
   8    -22.4905195 -0.180632E-07  0.764E-04    1.84      35.0  T
   9    -22.4905195 -0.235594E-08  0.141E-04    1.84     189.9  T
     SCC iter.                  ...        0 min,  0.005 sec
     gradient                   ...        0 min,  0.001 sec
 * total energy  :   -22.2263318 Eh     change       -0.8574450E-02 Eh
   gradient norm :     0.2148491 Eh/α   predicted    -0.2073145E-01 ( 141.78%)
   displ. norm   :     0.0924650 α      lambda       -0.6500280E-02
   maximum displ.:     0.0722580 α      in ANC's #1, #2, #36, ...

........................................................................
.............................. CYCLE    6 ..............................
........................................................................

 iter      E             dE          RMSdq      gap      omega  full diag
   1    -22.4883961 -0.224884E+02  0.147E-01    1.59       0.0  T
   2    -22.4884960 -0.998397E-04  0.939E-02    1.69       1.0  T
   3    -22.4885045 -0.853006E-05  0.553E-02    1.67       1.0  T
   4    -22.4885055 -0.971556E-06  0.179E-02    1.68       1.5  T
   5    -22.4885094 -0.395442E-05  0.608E-03    1.68       4.4  T
   6    -22.4885098 -0.307496E-06  0.317E-03    1.68       8.4  T
   7    -22.4885098 -0.626162E-07  0.979E-04    1.68      27.3  T
   8    -22.4885098 -0.207455E-08  0.337E-04    1.68      79.4  T
     SCC iter.                  ...        0 min,  0.004 sec
     gradient                   ...        0 min,  0.001 sec
 * total energy  :   -22.2297254 Eh     change       -0.3393552E-02 Eh
   gradient norm :     0.0240304 Eh/α   predicted    -0.3277928E-02 (  -3.41%)
   displ. norm   :     0.0181256 α      lambda       -0.3206135E-03
   maximum displ.:     0.0076058 α      in ANC's #2, #23, #3, ...

........................................................................
.............................. CYCLE    7 ..............................
........................................................................

 iter      E             dE          RMSdq      gap      omega  full diag
   1    -22.4887114 -0.224887E+02  0.239E-02    1.68       0.0  T
   2    -22.4887116 -0.270672E-06  0.141E-02    1.69       1.9  T
   3    -22.4887109  0.725930E-06  0.117E-02    1.69       2.3  T
   4    -22.4887122 -0.133218E-05  0.135E-03    1.69      19.8  T
   5    -22.4887122 -0.121468E-07  0.607E-04    1.69      44.0  T
   6    -22.4887123 -0.150756E-08  0.213E-04    1.69     125.2  T
     SCC iter.                  ...        0 min,  0.003 sec
     gradient                   ...        0 min,  0.001 sec
 * total energy  :   -22.2300023 Eh     change       -0.2769824E-03 Eh
   gradient norm :     0.0150137 Eh/α   predicted    -0.1603594E-03 ( -42.10%)
   displ. norm   :     0.0652643 α      lambda       -0.8108908E-03
   maximum displ.:     0.0286263 α      in ANC's #1, #23, #2, ...

........................................................................
.............................. CYCLE    8 ..............................
........................................................................

 iter      E             dE          RMSdq      gap      omega  full diag
   1    -22.4887427 -0.224887E+02  0.798E-02    1.69       0.0  T
   2    -22.4887472 -0.457011E-05  0.469E-02    1.70       1.0  T
   3    -22.4887381  0.915718E-05  0.343E-02    1.71       1.0  T
   4    -22.4887502 -0.121003E-04  0.547E-03    1.71       4.9  T
   5    -22.4887505 -0.354366E-06  0.207E-03    1.71      12.9  T
   6    -22.4887505 -0.151365E-07  0.771E-04    1.71      34.6  T
   7    -22.4887505 -0.713893E-09  0.330E-04    1.71      81.1  T
     SCC iter.                  ...        0 min,  0.004 sec
     gradient                   ...        0 min,  0.001 sec
 * total energy  :   -22.2304664 Eh     change       -0.4640266E-03 Eh
   gradient norm :     0.0209847 Eh/α   predicted    -0.4071739E-03 ( -12.25%)
   displ. norm   :     0.0272345 α      lambda       -0.1580150E-03
   maximum displ.:     0.0169227 α      in ANC's #1, #8, #3, ...

........................................................................
.............................. CYCLE    9 ..............................
........................................................................

 iter      E             dE          RMSdq      gap      omega  full diag
   1    -22.4884906 -0.224885E+02  0.285E-02    1.72       0.0  T
   2    -22.4884912 -0.598239E-06  0.175E-02    1.72       1.5  T
   3    -22.4884911  0.153918E-06  0.541E-03    1.72       4.9  T
   4    -22.4884913 -0.164906E-06  0.244E-03    1.72      10.9  T
   5    -22.4884913 -0.812581E-07  0.737E-04    1.72      36.3  T
   6    -22.4884913 -0.142128E-08  0.357E-04    1.72      74.9  T
     SCC iter.                  ...        0 min,  0.004 sec
     gradient                   ...        0 min,  0.001 sec
 * total energy  :   -22.2306061 Eh     change       -0.1396993E-03 Eh
   gradient norm :     0.0194022 Eh/α   predicted    -0.7906526E-04 ( -43.40%)
   displ. norm   :     0.1237704 α      lambda       -0.7105405E-03
   maximum displ.:     0.0832307 α      in ANC's #1, #3, #8, ...

........................................................................
.............................. CYCLE   10 ..............................
........................................................................

 iter      E             dE          RMSdq      gap      omega  full diag
   1    -22.4867081 -0.224867E+02  0.127E-01    1.74       0.0  T
   2    -22.4867185 -0.104248E-04  0.791E-02    1.76       1.0  T
   3    -22.4867031  0.153780E-04  0.378E-02    1.76       1.0  T
   4    -22.4867201 -0.169575E-04  0.124E-02    1.76       2.2  T
   5    -22.4867221 -0.198416E-05  0.328E-03    1.76       8.1  T
   6    -22.4867221 -0.134337E-07  0.160E-03    1.76      16.7  T
   7    -22.4867221 -0.445673E-08  0.546E-04    1.76      48.9  T
   8    -22.4867221 -0.147056E-08  0.325E-04    1.76      82.3  T
     SCC iter.                  ...        0 min,  0.004 sec
     gradient                   ...        0 min,  0.001 sec
 * total energy  :   -22.2310821 Eh     change       -0.4759946E-03 Eh
   gradient norm :     0.0188567 Eh/α   predicted    -0.3607110E-03 ( -24.22%)
   displ. norm   :     0.0852554 α      lambda       -0.4032186E-03
   maximum displ.:     0.0496234 α      in ANC's #1, #3, #8, ...

........................................................................
.............................. CYCLE   11 ..............................
........................................................................

 iter      E             dE          RMSdq      gap      omega  full diag
   1    -22.4853795 -0.224854E+02  0.801E-02    1.79       0.0  T
   2    -22.4853823 -0.280755E-05  0.500E-02    1.80       1.0  T
   3    -22.4853718  0.104999E-04  0.302E-02    1.80       1.0  T
   4    -22.4853842 -0.123760E-04  0.606E-03    1.80       4.4  T
   5    -22.4853846 -0.389938E-06  0.216E-03    1.80      12.4  T
   6    -22.4853846 -0.670416E-08  0.939E-04    1.80      28.5  T
   7    -22.4853846 -0.231264E-08  0.360E-04    1.80      74.2  T
     SCC iter.                  ...        0 min,  0.004 sec
     gradient                   ...        0 min,  0.001 sec
 * total energy  :   -22.2313832 Eh     change       -0.3011758E-03 Eh
   gradient norm :     0.0147926 Eh/α   predicted    -0.2030762E-03 ( -32.57%)
   displ. norm   :     0.1259652 α      lambda       -0.4729658E-03
   maximum displ.:     0.0813730 α      in ANC's #1, #3, #8, ...

........................................................................
.............................. CYCLE   12 ..............................
........................................................................

 iter      E             dE          RMSdq      gap      omega  full diag
   1    -22.4832995 -0.224833E+02  0.126E-01    1.79       0.0  T
   2    -22.4833079 -0.834659E-05  0.760E-02    1.82       1.0  T
   3    -22.4832916  0.163076E-04  0.407E-02    1.81       1.0  T
   4    -22.4833104 -0.188732E-04  0.980E-03    1.81       2.7  T
   5    -22.4833116 -0.115266E-05  0.351E-03    1.81       7.6  T
   6    -22.4833116 -0.237657E-07  0.188E-03    1.81      14.2  T
   7    -22.4833116 -0.126973E-07  0.644E-04    1.81      41.5  T
   8    -22.4833116 -0.164745E-08  0.342E-04    1.81      78.1  T
     SCC iter.                  ...        0 min,  0.004 sec
     gradient                   ...        0 min,  0.001 sec
 * total energy  :   -22.2316878 Eh     change       -0.3045877E-03 Eh
   gradient norm :     0.0194781 Eh/α   predicted    -0.2402332E-03 ( -21.13%)
   displ. norm   :     0.0945959 α      lambda       -0.5255800E-03
   maximum displ.:     0.0455503 α      in ANC's #3, #8, #1, ...

........................................................................
.............................. CYCLE   13 ..............................
........................................................................

 iter      E             dE          RMSdq      gap      omega  full diag
   1    -22.4826449 -0.224826E+02  0.903E-02    1.86       0.0  T
   2    -22.4826460 -0.110385E-05  0.546E-02    1.85       1.0  T
   3    -22.4826352  0.107950E-04  0.277E-02    1.85       1.0  T
   4    -22.4826473 -0.120918E-04  0.331E-03    1.85       8.1  T
   5    -22.4826474 -0.327703E-07  0.196E-03    1.85      13.6  T
   6    -22.4826474 -0.816906E-08  0.664E-04    1.85      40.3  T
   7    -22.4826474 -0.157805E-08  0.361E-04    1.85      74.1  T
     SCC iter.                  ...        0 min,  0.004 sec
     gradient                   ...        0 min,  0.001 sec
 * total energy  :   -22.2319346 Eh     change       -0.2467605E-03 Eh
   gradient norm :     0.0296409 Eh/α   predicted    -0.2651416E-03 (   7.45%)
   displ. norm   :     0.0758916 α      lambda       -0.2825641E-03
   maximum displ.:     0.0487949 α      in ANC's #1, #3, #8, ...

........................................................................
.............................. CYCLE   14 ..............................
........................................................................

 iter      E             dE          RMSdq      gap      omega  full diag
   1    -22.4817177 -0.224817E+02  0.763E-02    1.83       0.0  T
   2    -22.4817223 -0.460788E-05  0.461E-02    1.85       1.0  T
   3    -22.4817212  0.109900E-05  0.164E-02    1.84       1.6  T
   4    -22.4817230 -0.181803E-05  0.355E-03    1.85       7.5  T
   5    -22.4817231 -0.633917E-07  0.188E-03    1.85      14.2  T
   6    -22.4817231  0.447329E-09  0.111E-03    1.85      24.0  T
   7    -22.4817231 -0.129003E-07  0.399E-04    1.85      67.0  T
   8    -22.4817231 -0.929578E-09  0.161E-04    1.85     166.2  T
     SCC iter.                  ...        0 min,  0.004 sec
     gradient                   ...        0 min,  0.001 sec
 * total energy  :   -22.2321351 Eh     change       -0.2005406E-03 Eh
   gradient norm :     0.0143448 Eh/α   predicted    -0.1420967E-03 ( -29.14%)
   displ. norm   :     0.0591727 α      lambda       -0.3898255E-03
   maximum displ.:     0.0280314 α      in ANC's #1, #3, #18, ...

........................................................................
.............................. CYCLE   15 ..............................
........................................................................

 iter      E             dE          RMSdq      gap      omega  full diag
   1    -22.4825518 -0.224826E+02  0.643E-02    1.85       0.0  T
   2    -22.4825536 -0.177097E-05  0.406E-02    1.86       1.0  T
   3    -22.4825459  0.774349E-05  0.251E-02    1.85       1.1  T
   4    -22.4825551 -0.924616E-05  0.477E-03    1.85       5.6  T
   5    -22.4825554 -0.254104E-06  0.150E-03    1.86      17.8  T
   6    -22.4825554 -0.113600E-08  0.707E-04    1.86      37.8  T
   7    -22.4825554 -0.246153E-08  0.183E-04    1.86     145.9  T
     SCC iter.                  ...        0 min,  0.004 sec
     gradient                   ...        0 min,  0.001 sec
 * total energy  :   -22.2324173 Eh     change       -0.2821962E-03 Eh
   gradient norm :     0.0202323 Eh/α   predicted    -0.1955958E-03 ( -30.69%)
   displ. norm   :     0.0434379 α      lambda       -0.3141974E-03
   maximum displ.:     0.0169145 α      in ANC's #18, #14, #15, ...

........................................................................
.............................. CYCLE   16 ..............................
........................................................................

 iter      E             dE          RMSdq      gap      omega  full diag
   1    -22.4846086 -0.224846E+02  0.550E-02    1.88       0.0  T
   2    -22.4846095 -0.926161E-06  0.346E-02    1.87       1.0  T
   3    -22.4846032  0.630377E-05  0.238E-02    1.87       1.1  T
   4    -22.4846113 -0.805641E-05  0.290E-03    1.87       9.2  T
   5    -22.4846114 -0.823277E-07  0.941E-04    1.87      28.4  T
   6    -22.4846114 -0.137587E-08  0.468E-04    1.87      57.1  T
     SCC iter.                  ...        0 min,  0.003 sec
     gradient                   ...        0 min,  0.001 sec
 * total energy  :   -22.2326057 Eh     change       -0.1883837E-03 Eh
   gradient norm :     0.0122022 Eh/α   predicted    -0.1573933E-03 ( -16.45%)
   displ. norm   :     0.0448309 α      lambda       -0.1143011E-03
   maximum displ.:     0.0228011 α      in ANC's #3, #1, #4, ...

........................................................................
.............................. CYCLE   17 ..............................
........................................................................

 iter      E             dE          RMSdq      gap      omega  full diag
   1    -22.4849641 -0.224850E+02  0.372E-02    1.88       0.0  T
   2    -22.4849647 -0.564262E-06  0.225E-02    1.88       1.2  T
   3    -22.4849645  0.196542E-06  0.595E-03    1.88       4.5  T
   4    -22.4849647 -0.289057E-06  0.178E-03    1.88      15.0  T
   5    -22.4849648 -0.204401E-07  0.973E-04    1.88      27.5  T
   6    -22.4849648 -0.300410E-08  0.555E-04    1.88      48.2  T
     SCC iter.                  ...        0 min,  0.003 sec
     gradient                   ...        0 min,  0.001 sec
 * total energy  :   -22.2327020 Eh     change       -0.9629596E-04 Eh
   gradient norm :     0.0131437 Eh/α   predicted    -0.5726417E-04 ( -40.53%)
   displ. norm   :     0.1103440 α      lambda       -0.3365270E-03
   maximum displ.:     0.0583709 α      in ANC's #3, #1, #4, ...

........................................................................
.............................. CYCLE   18 ..............................
........................................................................

 iter      E             dE          RMSdq      gap      omega  full diag
   1    -22.4861452 -0.224861E+02  0.887E-02    1.90       0.0  T
   2    -22.4861505 -0.527354E-05  0.537E-02    1.92       1.0  T
   3    -22.4861463  0.422406E-05  0.231E-02    1.91       1.2  T
   4    -22.4861510 -0.468345E-05  0.796E-03    1.92       3.4  T
   5    -22.4861518 -0.854797E-06  0.242E-03    1.92      11.0  T
   6    -22.4861518 -0.123450E-07  0.144E-03    1.92      18.5  T
   7    -22.4861518 -0.652531E-08  0.515E-04    1.92      51.9  T
   8    -22.4861518 -0.139893E-08  0.243E-04    1.92     109.9  T
     SCC iter.                  ...        0 min,  0.004 sec
     gradient                   ...        0 min,  0.001 sec
 * total energy  :   -22.2329298 Eh     change       -0.2277927E-03 Eh
   gradient norm :     0.0117381 Eh/α   predicted    -0.1703132E-03 ( -25.23%)
   displ. norm   :     0.0674494 α      lambda       -0.1754495E-03
   maximum displ.:     0.0367358 α      in ANC's #3, #1, #4, ...

........................................................................
.............................. CYCLE   19 ..............................
........................................................................

 iter      E             dE          RMSdq      gap      omega  full diag
   1    -22.4868578 -0.224869E+02  0.558E-02    1.93       0.0  T
   2    -22.4868603 -0.247202E-05  0.336E-02    1.94       1.0  T
   3    -22.4868582  0.211757E-05  0.167E-02    1.94       1.6  T
   4    -22.4868606 -0.240307E-05  0.542E-03    1.94       4.9  T
   5    -22.4868610 -0.407254E-06  0.150E-03    1.94      17.8  T
   6    -22.4868610 -0.543722E-08  0.916E-04    1.94      29.2  T
   7    -22.4868610 -0.261666E-08  0.343E-04    1.94      78.0  T
     SCC iter.                  ...        0 min,  0.004 sec
     gradient                   ...        0 min,  0.001 sec
 * total energy  :   -22.2330587 Eh     change       -0.1288655E-03 Eh
   gradient norm :     0.0108480 Eh/α   predicted    -0.8812332E-04 ( -31.62%)
   displ. norm   :     0.0637922 α      lambda       -0.1650975E-03
   maximum displ.:     0.0349257 α      in ANC's #3, #1, #4, ...

........................................................................
.............................. CYCLE   20 ..............................
........................................................................

 iter      E             dE          RMSdq      gap      omega  full diag
   1    -22.4872666 -0.224873E+02  0.550E-02    1.95       0.0  T
   2    -22.4872682 -0.164066E-05  0.327E-02    1.96       1.0  T
   3    -22.4872670  0.119045E-05  0.127E-02    1.95       2.1  T
   4    -22.4872684 -0.136784E-05  0.391E-03    1.96       6.8  T
   5    -22.4872686 -0.197011E-06  0.141E-03    1.96      19.0  T
   6    -22.4872686 -0.586071E-08  0.800E-04    1.96      33.4  T
   7    -22.4872686 -0.249699E-08  0.257E-04    1.96     103.9  T
     SCC iter.                  ...        0 min,  0.004 sec
     gradient                   ...        0 min,  0.001 sec
 * total energy  :   -22.2331780 Eh     change       -0.1193030E-03 Eh
   gradient norm :     0.0111459 Eh/α   predicted    -0.8288543E-04 ( -30.53%)
   displ. norm   :     0.0613038 α      lambda       -0.1501639E-03
   maximum displ.:     0.0334227 α      in ANC's #3, #1, #4, ...
 * RMSD in coord.:     0.2575892 α      energy gain  -0.5557244E+00 Eh

generating ANC from model Hessian ...
Using Lindh-Hessian (1995)
 Shifting diagonal of input Hessian by    2.1005368009128507E-002
 Lowest  eigenvalues of input Hessian
    0.010000    0.000000    0.000000    0.000000    0.000000    0.000000
    0.000000    0.024288    0.028556    0.037564    0.041027    0.051936
    0.068767    0.075054    0.076507    0.083997    0.096001    0.107022
 Highest eigenvalues
    1.401931    1.438692    1.771202    1.845261    6.630469   10.794804


........................................................................
.............................. CYCLE   21 ..............................
........................................................................

 iter      E             dE          RMSdq      gap      omega  full diag
   1    -22.4871606 -0.224872E+02  0.524E-02    1.96       0.0  T
   2    -22.4871612 -0.684245E-06  0.314E-02    1.97       1.0  T
   3    -22.4871608  0.461182E-06  0.757E-03    1.96       3.5  T
   4    -22.4871614 -0.574804E-06  0.227E-03    1.97      11.8  T
   5    -22.4871614 -0.442720E-07  0.121E-03    1.97      22.1  T
   6    -22.4871614 -0.453329E-08  0.583E-04    1.97      45.9  T
   7    -22.4871614 -0.203379E-08  0.131E-04    1.97     204.4  T
     SCC iter.                  ...        0 min,  0.004 sec
     gradient                   ...        0 min,  0.001 sec
 * total energy  :   -22.2332899 Eh     change       -0.1118990E-03 Eh
   gradient norm :     0.0113584 Eh/α   predicted     0.0000000E+00 (-100.00%)
   displ. norm   :     0.0802690 α      lambda       -0.3831610E-03
   maximum displ.:     0.0373267 α      in ANC's #5, #1, #2, ...

........................................................................
.............................. CYCLE   22 ..............................
........................................................................

 iter      E             dE          RMSdq      gap      omega  full diag
   1    -22.4862602 -0.224863E+02  0.818E-02    1.98       0.0  T
   2    -22.4862612 -0.102425E-05  0.484E-02    1.97       1.0  T
   3    -22.4862593  0.195178E-05  0.135E-02    1.97       2.0  T
   4    -22.4862614 -0.213645E-05  0.382E-03    1.97       7.0  T
   5    -22.4862616 -0.169939E-06  0.152E-03    1.97      17.6  T
   6    -22.4862616 -0.599964E-08  0.687E-04    1.97      38.9  T
   7    -22.4862616 -0.223867E-08  0.206E-04    1.97     130.0  T
     SCC iter.                  ...        0 min,  0.004 sec
     gradient                   ...        0 min,  0.001 sec
 * total energy  :   -22.2335615 Eh     change       -0.2716537E-03 Eh
   gradient norm :     0.0057649 Eh/α   predicted    -0.1928146E-03 ( -29.02%)
   displ. norm   :     0.1094982 α      lambda       -0.2474544E-03
   maximum displ.:     0.0628292 α      in ANC's #5, #3, #2, ...

........................................................................
.............................. CYCLE   23 ..............................
........................................................................

 iter      E             dE          RMSdq      gap      omega  full diag
   1    -22.4850502 -0.224851E+02  0.852E-02    1.96       0.0  T
   2    -22.4850522 -0.195029E-05  0.501E-02    1.96       1.0  T
   3    -22.4850489  0.332125E-05  0.173E-02    1.96       1.5  T
   4    -22.4850524 -0.356178E-05  0.510E-03    1.96       5.2  T
   5    -22.4850528 -0.361710E-06  0.143E-03    1.96      18.7  T
   6    -22.4850528 -0.610405E-08  0.742E-04    1.96      36.0  T
   7    -22.4850528 -0.214447E-08  0.282E-04    1.96      94.8  T
     SCC iter.                  ...        0 min,  0.004 sec
     gradient                   ...        0 min,  0.001 sec
 * total energy  :   -22.2337171 Eh     change       -0.1555896E-03 Eh
   gradient norm :     0.0069896 Eh/α   predicted    -0.1252104E-03 ( -19.53%)
   displ. norm   :     0.0953233 α      lambda       -0.1121303E-03
   maximum displ.:     0.0569647 α      in ANC's #3, #2, #5, ...

........................................................................
.............................. CYCLE   24 ..............................
........................................................................

 iter      E             dE          RMSdq      gap      omega  full diag
   1    -22.4846690 -0.224847E+02  0.645E-02    1.96       0.0  T
   2    -22.4846700 -0.106421E-05  0.383E-02    1.95       1.0  T
   3    -22.4846687  0.138010E-05  0.115E-02    1.96       2.3  T
   4    -22.4846702 -0.154360E-05  0.339E-03    1.95       7.9  T
   5    -22.4846703 -0.130950E-06  0.136E-03    1.95      19.7  T
   6    -22.4846703 -0.691987E-08  0.652E-04    1.95      41.0  T
   7    -22.4846704 -0.175952E-08  0.206E-04    1.96     129.6  T
     SCC iter.                  ...        0 min,  0.004 sec
     gradient                   ...        0 min,  0.001 sec
 * total energy  :   -22.2337908 Eh     change       -0.7374140E-04 Eh
   gradient norm :     0.0101148 Eh/α   predicted    -0.5657490E-04 ( -23.28%)
   displ. norm   :     0.1225796 α      lambda       -0.1166130E-03
   maximum displ.:     0.0762242 α      in ANC's #3, #2, #4, ...

........................................................................
.............................. CYCLE   25 ..............................
........................................................................

 iter      E             dE          RMSdq      gap      omega  full diag
   1    -22.4845117 -0.224845E+02  0.753E-02    1.95       0.0  T
   2    -22.4845121 -0.360028E-06  0.447E-02    1.95       1.0  T
   3    -22.4845119  0.153629E-06  0.462E-03    1.95       5.8  T
   4    -22.4845122 -0.238190E-06  0.233E-03    1.95      11.5  T
   5    -22.4845122 -0.467648E-07  0.106E-03    1.95      25.1  T
   6    -22.4845122 -0.296111E-08  0.255E-04    1.95     104.9  T
   7    -22.4845122 -0.944418E-10  0.109E-04    1.95     245.9  T
     SCC iter.                  ...        0 min,  0.004 sec
     gradient                   ...        0 min,  0.001 sec
 * total energy  :   -22.2338671 Eh     change       -0.7630810E-04 Eh
   gradient norm :     0.0058397 Eh/α   predicted    -0.5918260E-04 ( -22.44%)
   displ. norm   :     0.0877144 α      lambda       -0.8003681E-04
   maximum displ.:     0.0577165 α      in ANC's #3, #2, #4, ...

........................................................................
.............................. CYCLE   26 ..............................
........................................................................

 iter      E             dE          RMSdq      gap      omega  full diag
   1    -22.4850441 -0.224850E+02  0.524E-02    1.95       0.0  T
   2    -22.4850446 -0.448738E-06  0.312E-02    1.96       1.0  T
   3    -22.4850438  0.717912E-06  0.755E-03    1.96       3.5  T
   4    -22.4850446 -0.760716E-06  0.266E-03    1.96      10.0  T
   5    -22.4850447 -0.964319E-07  0.878E-04    1.96      30.5  T
   6    -22.4850447 -0.173149E-08  0.449E-04    1.96      59.6  T
     SCC iter.                  ...        0 min,  0.003 sec
     gradient                   ...        0 min,  0.001 sec
 * total energy  :   -22.2339210 Eh     change       -0.5388133E-04 Eh
   gradient norm :     0.0031737 Eh/α   predicted    -0.4032624E-04 ( -25.16%)
   displ. norm   :     0.0568780 α      lambda       -0.3468092E-04
   maximum displ.:     0.0459110 α      in ANC's #3, #4, #2, ...

........................................................................
.............................. CYCLE   27 ..............................
........................................................................

 iter      E             dE          RMSdq      gap      omega  full diag
   1    -22.4851577 -0.224852E+02  0.332E-02    1.96       0.0  T
   2    -22.4851580 -0.322494E-06  0.198E-02    1.96       1.3  T
   3    -22.4851575  0.519260E-06  0.669E-03    1.96       4.0  T
   4    -22.4851581 -0.539193E-06  0.240E-03    1.96      11.1  T
   5    -22.4851581 -0.793900E-07  0.701E-04    1.96      38.1  T
   6    -22.4851581 -0.789814E-09  0.372E-04    1.96      71.8  T
     SCC iter.                  ...        0 min,  0.003 sec
     gradient                   ...        0 min,  0.001 sec
 * total energy  :   -22.2339450 Eh     change       -0.2397401E-04 Eh
   gradient norm :     0.0019720 Eh/α   predicted    -0.1739610E-04 ( -27.44%)
   displ. norm   :     0.0716089 α      lambda       -0.2084682E-04
   maximum displ.:     0.0611655 α      in ANC's #3, #1, #2, ...

........................................................................
.............................. CYCLE   28 ..............................
........................................................................

 iter      E             dE          RMSdq      gap      omega  full diag
   1    -22.4851933 -0.224852E+02  0.384E-02    1.96       0.0  T
   2    -22.4851937 -0.441660E-06  0.230E-02    1.97       1.2  T
   3    -22.4851932  0.546503E-06  0.698E-03    1.97       3.8  T
   4    -22.4851937 -0.556524E-06  0.267E-03    1.97      10.0  T
   5    -22.4851938 -0.984349E-07  0.698E-04    1.97      38.3  T
   6    -22.4851938 -0.139618E-08  0.394E-04    1.97      67.8  T
     SCC iter.                  ...        0 min,  0.003 sec
     gradient                   ...        0 min,  0.001 sec
 * total energy  :   -22.2339633 Eh     change       -0.1826600E-04 Eh
   gradient norm :     0.0026422 Eh/α   predicted    -0.1044634E-04 ( -42.81%)
   displ. norm   :     0.0396331 α      lambda       -0.1561148E-04
   maximum displ.:     0.0383582 α      in ANC's #3, #7, #4, ...

........................................................................
.............................. CYCLE   29 ..............................
........................................................................

 iter      E             dE          RMSdq      gap      omega  full diag
   1    -22.4848354 -0.224848E+02  0.235E-02    1.97       0.0  T
   2    -22.4848357 -0.216292E-06  0.144E-02    1.97       1.9  T
   3    -22.4848356  0.362606E-07  0.348E-03    1.97       7.7  T
   4    -22.4848357 -0.840018E-07  0.100E-03    1.97      26.7  T
   5    -22.4848357 -0.462132E-08  0.581E-04    1.97      46.0  T
     SCC iter.                  ...        0 min,  0.003 sec
     gradient                   ...        0 min,  0.001 sec
 * total energy  :   -22.2339727 Eh     change       -0.9444265E-05 Eh
   gradient norm :     0.0039616 Eh/α   predicted    -0.7818287E-05 ( -17.22%)
   displ. norm   :     0.0687292 α      lambda       -0.3359339E-04
   maximum displ.:     0.0468633 α      in ANC's #3, #4, #1, ...

........................................................................
.............................. CYCLE   30 ..............................
........................................................................

 iter      E             dE          RMSdq      gap      omega  full diag
   1    -22.4850178 -0.224850E+02  0.357E-02    1.97       0.0  T
   2    -22.4850180 -0.182694E-06  0.216E-02    1.97       1.2  T
   3    -22.4850180  0.224854E-07  0.254E-03    1.97      10.5  T
   4    -22.4850180 -0.451978E-07  0.141E-03    1.97      19.0  T
   5    -22.4850180 -0.239698E-07  0.650E-04    1.97      41.1  T
   6    -22.4850180 -0.179731E-08  0.161E-04    1.97     165.6  T
     SCC iter.                  ...        0 min,  0.003 sec
     gradient                   ...        0 min,  0.001 sec
 * total energy  :   -22.2339926 Eh     change       -0.1989486E-04 Eh
   gradient norm :     0.0038612 Eh/α   predicted    -0.1687524E-04 ( -15.18%)
   displ. norm   :     0.0469746 α      lambda       -0.1339691E-04
   maximum displ.:     0.0425366 α      in ANC's #3, #1, #4, ...

........................................................................
.............................. CYCLE   31 ..............................
........................................................................

 iter      E             dE          RMSdq      gap      omega  full diag
   1    -22.4848214 -0.224848E+02  0.234E-02    1.96       0.0  T
   2    -22.4848215 -0.774161E-07  0.143E-02    1.96       1.9  T
   3    -22.4848210  0.431357E-06  0.542E-03    1.96       4.9  T
   4    -22.4848215 -0.479641E-06  0.919E-04    1.96      29.1  T
   5    -22.4848215 -0.763589E-08  0.414E-04    1.96      64.5  T
     SCC iter.                  ...        0 min,  0.003 sec
     gradient                   ...        0 min,  0.001 sec
 * total energy  :   -22.2340009 Eh     change       -0.8301347E-05 Eh
   gradient norm :     0.0025849 Eh/α   predicted    -0.6714003E-05 ( -19.12%)
   displ. norm   :     0.0257707 α      lambda       -0.1341020E-04
   maximum displ.:     0.0175715 α      in ANC's #3, #4, #2, ...

........................................................................
.............................. CYCLE   32 ..............................
........................................................................

 iter      E             dE          RMSdq      gap      omega  full diag
   1    -22.4852164 -0.224852E+02  0.177E-02    1.96       0.0  T
   2    -22.4852165 -0.152692E-06  0.106E-02    1.96       2.5  T
   3    -22.4852162  0.359165E-06  0.583E-03    1.96       4.6  T
   4    -22.4852166 -0.403961E-06  0.158E-03    1.96      16.9  T
   5    -22.4852166 -0.326740E-07  0.415E-04    1.96      64.4  T
   6    -22.4852166 -0.115470E-09  0.209E-04    1.96     128.0  T
     SCC iter.                  ...        0 min,  0.003 sec
     gradient                   ...        0 min,  0.001 sec
 * total energy  :   -22.2340089 Eh     change       -0.7940514E-05 Eh
   gradient norm :     0.0010314 Eh/α   predicted    -0.6708983E-05 ( -15.51%)
   displ. norm   :     0.0442275 α      lambda       -0.5948013E-05
   maximum displ.:     0.0418363 α      in ANC's #3, #30, #1, ...

........................................................................
.............................. CYCLE   33 ..............................
........................................................................

 iter      E             dE          RMSdq      gap      omega  full diag
   1    -22.4851117 -0.224851E+02  0.339E-02    1.96       0.0  T
   2    -22.4851119 -0.198692E-06  0.209E-02    1.96       1.3  T
   3    -22.4851109  0.100913E-05  0.874E-03    1.96       3.1  T
   4    -22.4851120 -0.115142E-05  0.166E-03    1.96      16.1  T
   5    -22.4851120 -0.174476E-07  0.830E-04    1.96      32.2  T
   6    -22.4851120 -0.195087E-09  0.267E-04    1.96     100.1  T
     SCC iter.                  ...        0 min,  0.003 sec
     gradient                   ...        0 min,  0.001 sec
 * total energy  :   -22.2340111 Eh     change       -0.2297679E-05 Eh
   gradient norm :     0.0028687 Eh/α   predicted    -0.2978372E-05 (  29.63%)
   displ. norm   :     0.0136305 α      lambda       -0.4690671E-05
   maximum displ.:     0.0103262 α      in ANC's #3, #4, #1, ...

........................................................................
.............................. CYCLE   34 ..............................
........................................................................

 iter      E             dE          RMSdq      gap      omega  full diag
   1    -22.4852918 -0.224853E+02  0.774E-03    1.96       0.0  T
   2    -22.4852918 -0.173246E-07  0.458E-03    1.96       5.8  T
   3    -22.4852918  0.125122E-07  0.122E-03    1.96      21.9  T
   4    -22.4852918 -0.153065E-07  0.439E-04    1.96      60.9  T
   5    -22.4852918 -0.211495E-08  0.184E-04    1.96     145.5  T
     SCC iter.                  ...        0 min,  0.003 sec
     gradient                   ...        0 min,  0.001 sec
 * total energy  :   -22.2340140 Eh     change       -0.2874251E-05 Eh
   gradient norm :     0.0012353 Eh/α   predicted    -0.2347239E-05 ( -18.34%)
   displ. norm   :     0.0083259 α      lambda       -0.1852006E-05
   maximum displ.:     0.0048234 α      in ANC's #3, #4, #2, ...

........................................................................
.............................. CYCLE   35 ..............................
........................................................................

 iter      E             dE          RMSdq      gap      omega  full diag
   1    -22.4853009 -0.224853E+02  0.686E-03    1.96       0.0  T
   2    -22.4853009 -0.152260E-07  0.420E-03    1.96       6.4  T
   3    -22.4853009  0.339625E-09  0.680E-04    1.96      39.3  T
   4    -22.4853009 -0.278867E-08  0.302E-04    1.96      88.6  T
     SCC iter.                  ...        0 min,  0.002 sec
     gradient                   ...        0 min,  0.001 sec
 * total energy  :   -22.2340157 Eh     change       -0.1668052E-05 Eh
   gradient norm :     0.0005171 Eh/α   predicted    -0.9251216E-06 ( -44.54%)
   displ. norm   :     0.0142759 α      lambda       -0.9697590E-06
   maximum displ.:     0.0123646 α      in ANC's #3, #1, #30, ...

   *** GEOMETRY OPTIMIZATION CONVERGED AFTER 35 ITERATIONS ***

------------------------------------------------------------------------
 total energy gain   :        -0.5565621 Eh     -349.2480 kcal/mol
 total RMSD          :         0.3767684 a0        0.1994 Å
 total power (kW/mol):       -41.7501025 (step)-7411.5664 (real)
------------------------------------------------------------------------

 ANCopt (total)                0 d,  0 h,  0 min,  0.197 sec
 optimizer setup                ...        0 min,  0.000 sec (  0.062%)
 model hessian                  ...        0 min,  0.006 sec (  2.927%)
 ANC generation                 ...        0 min,  0.001 sec (  0.364%)
 coordinate transformation      ...        0 min,  0.000 sec (  0.096%)
 single point calculation       ...        0 min,  0.177 sec ( 89.560%)
 optimization log               ...        0 min,  0.003 sec (  1.728%)
 hessian update                 ...        0 min,  0.000 sec (  0.182%)
 rational function              ...        0 min,  0.004 sec (  2.214%)

================
 final structure:
================
14
 xtb: 6.6.1 (8d0f1dd)
O           -2.51744763699497       -0.74946549325308        0.88283278619901
O           -1.18250281335599        0.14609387154866        1.07801039425064
C           -0.62177589116221        0.46261996569337       -0.14686667124927
C            0.54505726984622        1.28367502433522        0.31932626928456
C            1.71202805557169        0.57241388680471        0.12791744853594
C            1.46608902303040       -0.61030860582135       -0.52677462887141
C            0.02126403271473       -0.75175651228808       -0.84345289608753
H           -2.83017281430491       -0.72015225487113        1.79099170757056
H           -1.33784661600505        1.00392299769739       -0.78062304078504
H            0.42315246902749        2.21696383450540        0.83178305564627
H            2.68499022857419        0.91281891488512        0.43799939386557
H            2.20007883738323       -1.34440468150185       -0.80442726182655
H           -0.15526519976842       -0.74903776519745       -1.92213885157418
H           -0.40764894455642       -1.67328318253690       -0.44457770495858

 Bond Distances (Angstroems)
 ---------------------------
O1-O2=1.6193         O1-H8=0.9609         O2-O1=1.6193         O2-C3=1.3838         C3-O2=1.3838         C3-C4=1.5010         
C3-C7=1.5406         C3-H9=1.0988         C4-C3=1.5010         C4-C5=1.3800         C4-H10=1.0717        C5-C4=1.3800         
C5-C6=1.3740         C5-H11=1.0764        C6-C5=1.3740         C6-C7=1.4859         C6-H12=1.0746        C7-C3=1.5406         
C7-C6=1.4859         C7-H13=1.0930        C7-H14=1.0919        H8-O1=0.9609         H9-C3=1.0988         H10-C4=1.0717        
H11-C5=1.0764        H12-C6=1.0746        H13-C7=1.0930        H14-C7=1.0919        
 C  H  Rav=1.0844 sigma=0.0105  Rmin=1.0717  Rmax=1.0988     6
 C  C  Rav=1.4563 sigma=0.0672  Rmin=1.3740  Rmax=1.5406     5
 O  H  Rav=0.9609 sigma=0.0000  Rmin=0.9609  Rmax=0.9609     1
 O  C  Rav=1.3838 sigma=0.0000  Rmin=1.3838  Rmax=1.3838     1
 O  O  Rav=1.6193 sigma=0.0000  Rmin=1.6193  Rmax=1.6193     1

 selected bond angles (degree)
 --------------------
H8-O1-O2= 97.90                C3-O2-O1=110.72                C4-C3-O2= 99.51                C7-C3-O2=112.90                
C7-C3-C4=104.31                H9-C3-O2=111.05                H9-C3-C4=114.60                H9-C3-C7=113.55                
C5-C4-C3=109.41                H10-C4-C3=122.44               H10-C4-C5=127.69               C6-C5-C4=111.00                
H11-C5-C4=124.15               H11-C5-C6=124.84               C7-C6-C5=110.95                H12-C6-C5=126.08               
H12-C6-C7=122.96               C6-C7-C3=103.56                H13-C7-C3=112.14               H13-C7-C6=111.54               
H14-C7-C3=109.64               H14-C7-C6=112.61               H14-C7-H13=107.41              

 selected dihedral angles (degree)
 ---------------------------------
C4-C3-O2-O1=179.20            C7-C3-O2-O1=289.25            H9-C3-O2-O1= 58.09            C5-C4-C3-O2=108.34            
C5-C4-C3-C7=351.60            C5-C4-C3-H9=226.84            H10-C4-C3-O2=295.53           H10-C4-C3-C7=178.80           
H10-C4-C3-H9= 54.04           C6-C5-C4-C3=  5.04            C6-C5-C4-H10=177.36           H11-C5-C4-C3=184.07           
H11-C5-C4-H10=356.39          C7-C6-C5-C4=  0.75            C7-C6-C5-H11=181.72           H12-C6-C5-C4=179.55           
H12-C6-C5-H11=  0.53          C6-C7-C3-O2=261.27            C6-C7-C3-C4=  8.29            C6-C7-C3-H9=133.73            
H13-C7-C3-O2=140.88           H13-C7-C3-C4=247.91           H13-C7-C3-H9= 13.34           H14-C7-C3-O2= 21.67           
H14-C7-C3-C4=128.69           H14-C7-C3-H9=254.13           C3-C7-C6-C5=354.10            C3-C7-C6-H12=175.26           
H13-C7-C6-C5=114.90           H13-C7-C6-H12=296.05          H14-C7-C6-C5=235.75           H14-C7-C6-H12= 56.90          
           -------------------------------------------------
          |                Final Singlepoint                |
           -------------------------------------------------

          ...................................................
          :                      SETUP                      :
          :.................................................:
          :  # basis functions                  35          :
          :  # atomic orbitals                  35          :
          :  # shells                           21          :
          :  # electrons                        39          :
          :  max. iterations                   250          :
          :  Hamiltonian                  GFN2-xTB          :
          :  restarted?                      false          :
          :  GBSA solvation                  false          :
          :  PC potential                    false          :
          :  electronic temp.          300.0000000     K    :
          :  accuracy                    1.0000000          :
          :  -> integral cutoff          0.2500000E+02      :
          :  -> integral neglect         0.1000000E-07      :
          :  -> SCF convergence          0.1000000E-05 Eh   :
          :  -> wf. convergence          0.1000000E-03 e    :
          :  Broyden damping             0.4000000          :
          ...................................................

 iter      E             dE          RMSdq      gap      omega  full diag
   1    -22.4853009 -0.224853E+02  0.176E-04    1.96       0.0  T
   2    -22.4853009  0.777334E-11  0.147E-04    1.96     181.9  T
   3    -22.4853009 -0.244434E-09  0.729E-05    1.96     366.7  T

   *** convergence criteria satisfied after 3 iterations ***

         #    Occupation            Energy/Eh            Energy/eV
      -------------------------------------------------------------
         1        2.0000           -0.6997499             -19.0412
       ...           ...                  ...                  ...
        14        2.0000           -0.4677096             -12.7270
        15        2.0000           -0.4632553             -12.6058
        16        2.0000           -0.4590570             -12.4916
        17        2.0000           -0.4552798             -12.3888
        18        2.0000           -0.4403261             -11.9819
        19        2.0000           -0.4101313             -11.1602
        20        1.0000           -0.3306597              -8.9977 (HOMO)
        21                         -0.2585504              -7.0355 (LUMO)
        22                         -0.1822177              -4.9584
        23                          0.0600511               1.6341
        24                          0.0773025               2.1035
        25                          0.1160766               3.1586
       ...                                ...                  ...
        35                          0.6094202              16.5832
      -------------------------------------------------------------
                  HL-Gap            0.0721093 Eh            1.9622 eV
             Fermi-level           -0.3325003 Eh           -9.0478 eV

 SCC (total)                   0 d,  0 h,  0 min,  0.003 sec
 SCC setup                      ...        0 min,  0.000 sec (  2.490%)
 Dispersion                     ...        0 min,  0.000 sec (  1.403%)
 classical contributions        ...        0 min,  0.000 sec (  0.223%)
 integral evaluation            ...        0 min,  0.000 sec (  9.288%)
 iterations                     ...        0 min,  0.002 sec ( 57.588%)
 molecular gradient             ...        0 min,  0.001 sec ( 24.036%)
 printout                       ...        0 min,  0.000 sec (  4.144%)

         :::::::::::::::::::::::::::::::::::::::::::::::::::::
         ::                     SUMMARY                     ::
         :::::::::::::::::::::::::::::::::::::::::::::::::::::
         :: total energy             -22.234015691152 Eh    ::
         :: gradient norm              0.000516727225 Eh/a0 ::
         :: HOMO-LUMO gap              1.962193292410 eV    ::
         ::.................................................::
         :: SCC energy               -22.485300868592 Eh    ::
         :: -> isotropic ES            0.033848303749 Eh    ::
         :: -> anisotropic ES         -0.006182349382 Eh    ::
         :: -> anisotropic XC          0.004765276434 Eh    ::
         :: -> dispersion             -0.008644706443 Eh    ::
         :: repulsion energy           0.250889748355 Eh    ::
         :: add. restraining           0.000380047310 Eh    ::
         :: total charge               0.000000000000 e     ::
         :::::::::::::::::::::::::::::::::::::::::::::::::::::

           -------------------------------------------------
          |                Property Printout                |
           -------------------------------------------------

    * Orbital Energies and Occupations

         #    Occupation            Energy/Eh            Energy/eV
      -------------------------------------------------------------
         1        2.0000           -0.6997499             -19.0412
       ...           ...                  ...                  ...
         8        2.0000           -0.5597366             -15.2312
         9        2.0000           -0.5497591             -14.9597
        10        2.0000           -0.5416621             -14.7394
        11        2.0000           -0.5159702             -14.0403
        12        2.0000           -0.5057868             -13.7632
        13        2.0000           -0.4825244             -13.1302
        14        2.0000           -0.4677096             -12.7270
        15        2.0000           -0.4632553             -12.6058
        16        2.0000           -0.4590570             -12.4916
        17        2.0000           -0.4552798             -12.3888
        18        2.0000           -0.4403261             -11.9819
        19        2.0000           -0.4101313             -11.1602
        20        1.0000           -0.3306597              -8.9977 (HOMO)
        21                         -0.2585504              -7.0355 (LUMO)
        22                         -0.1822177              -4.9584
        23                          0.0600511               1.6341
        24                          0.0773025               2.1035
        25                          0.1160766               3.1586
        26                          0.1371102               3.7310
        27                          0.1461544               3.9771
        28                          0.1569411               4.2706
        29                          0.1620639               4.4100
        30                          0.2084117               5.6712
        31                          0.2392539               6.5104
       ...                                ...                  ...
        35                          0.6094202              16.5832
      -------------------------------------------------------------
                  HL-Gap            0.0721093 Eh            1.9622 eV
             Fermi-level           -0.3325003 Eh           -9.0478 eV

     #   Z          covCN         q      C6AA      α(0)
     1   8 O        1.442    -0.377    20.616     6.118
     2   8 O        1.504    -0.236    18.040     5.728
     3   6 C        3.778     0.135    18.414     6.114
     4   6 C        2.990    -0.040    28.982     8.831
     5   6 C        2.946    -0.025    28.625     8.775
     6   6 C        2.981    -0.028    28.705     8.789
     7   6 C        3.845    -0.071    21.830     6.646
     8   1 H        0.805     0.310     0.691     1.306
     9   1 H        0.923     0.040     2.450     2.448
    10   1 H        0.926     0.054     2.270     2.356
    11   1 H        0.926     0.047     2.354     2.399
    12   1 H        0.926     0.046     2.374     2.410
    13   1 H        0.924     0.059     2.206     2.322
    14   1 H        0.924     0.086     1.922     2.168

 Mol. C6AA /au·bohr⁶  :       1898.055036
 Mol. C8AA /au·bohr⁸  :      43221.108282
 Mol. α(0) /au        :         66.408677


Wiberg/Mayer (AO) data.
largest (>0.10) Wiberg bond orders for each atom

 ---------------------------------------------------------------------------
     #   Z sym  total        # sym  WBO       # sym  WBO       # sym  WBO
 ---------------------------------------------------------------------------
     1   8 O    1.899 --     8 H    0.901     2 O    0.861
     2   8 O    2.020 --     3 C    1.006     1 O    0.861
     3   6 C    3.948 --     2 O    1.006     7 C    0.978     4 C    0.968
                             9 H    0.945
     4   6 C    3.791 --     5 C    1.463    10 H    0.973     3 C    0.968
                             6 C    0.183
     5   6 C    3.990 --     6 C    1.494     4 C    1.463    11 H    0.967
     6   6 C    3.817 --     5 C    1.494     7 C    1.062    12 H    0.973
                             4 C    0.183
     7   6 C    3.997 --     6 C    1.062     3 C    0.978    13 H    0.944
                            14 H    0.943
     8   1 H    0.904 --     1 O    0.901
     9   1 H    0.998 --     3 C    0.945
    10   1 H    0.997 --     4 C    0.973
    11   1 H    0.996 --     5 C    0.967
    12   1 H    0.998 --     6 C    0.973
    13   1 H    0.996 --     7 C    0.944
    14   1 H    0.992 --     7 C    0.943
 ---------------------------------------------------------------------------

Topologies differ in total number of bonds
Writing topology from bond orders to xtbtopo.mol

molecular dipole:
                 x           y           z       tot (Debye)
 q only:        0.588       0.088      -0.278
   full:        0.495       0.110      -0.167       1.356
molecular quadrupole (traceless):
                xx          xy          yy          xz          yz          zz
 q only:       -1.052      -0.318       0.113      -1.831       0.087       0.940
  q+dip:       -0.794      -1.647       0.342      -2.326       0.802       0.453
   full:       -0.979      -0.795      -0.303      -2.725       0.126       1.281

           -------------------------------------------------
          |                Geometry Summary                 |
           -------------------------------------------------

      molecular mass/u    :       99.1080746
   center of mass at/Å    :       -0.2129964       0.0149376       0.1778318
  moments of inertia/u·Å² :        0.8523181E+02   0.2537118E+03   0.3032800E+03
rotational constants/cm⁻¹ :        0.1977857E+00   0.6644401E-01   0.5558439E-01

 * 11 selected distances

     #   Z          #   Z                                           value/Å
     2   8 O        3   6 C                                       1.3838091
     4   6 C        5   6 C                                       1.3799822
     5   6 C        6   6 C                                       1.3740235
     3   6 C        7   6 C                                       1.5405984 (max)
     6   6 C        7   6 C                                       1.4858709
     3   6 C        9   1 H                                       1.0988237
     4   6 C       10   1 H                                       1.0716814 (min)
     5   6 C       11   1 H                                       1.0764209
     6   6 C       12   1 H                                       1.0745833
     7   6 C       13   1 H                                       1.0930387
     7   6 C       14   1 H                                       1.0919155

 * 3 distinct bonds (by element types)

   Z      Z             #   av. dist./Å        max./Å        min./Å
   1 H    6 C           6     1.0844106     1.0988237     1.0716814
   6 C    6 C           4     1.4451187     1.5405984     1.3740235
   6 C    8 O           1     1.3838091     1.3838091     1.3838091


optimized geometry written to: xtbopt.xyz


           -------------------------------------------------
          | TOTAL ENERGY              -22.234015691152 Eh   |
          | GRADIENT NORM               0.000516727225 Eh/α |
          | HOMO-LUMO GAP               1.962193292410 eV   |
           -------------------------------------------------

------------------------------------------------------------------------
 * finished run on 2025/05/23 at 12:05:44.358     
------------------------------------------------------------------------
 total:
 * wall-time:     0 d,  0 h,  0 min,  0.219 sec
 *  cpu-time:     0 d,  0 h,  0 min,  3.270 sec
 * ratio c/w:    14.926 speedup
 SCF:
 * wall-time:     0 d,  0 h,  0 min,  0.010 sec
 *  cpu-time:     0 d,  0 h,  0 min,  0.148 sec
 * ratio c/w:    15.323 speedup
 ANC optimizer:
 * wall-time:     0 d,  0 h,  0 min,  0.202 sec
 *  cpu-time:     0 d,  0 h,  0 min,  3.023 sec
 * ratio c/w:    14.991 speedup

