      -----------------------------------------------------------      
     |                   =====================                   |     
     |                           x T B                           |     
     |                   =====================                   |     
     |                         S. Grimme                         |     
     |          Mulliken Center for Theoretical Chemistry        |     
     |                    University of Bonn                     |     
      -----------------------------------------------------------      

   * xtb version 6.6.1 (8d0f1dd) compiled by 'conda@1efc2f54142f' on 2023-08-01

   xtb is free software: you can redistribute it and/or modify it under
   the terms of the GNU Lesser General Public License as published by
   the Free Software Foundation, either version 3 of the License, or
   (at your option) any later version.
   
   xtb is distributed in the hope that it will be useful,
   but WITHOUT ANY WARRANTY; without even the implied warranty of
   MERCHANTABILITY or FITNESS FOR A PARTICULAR PURPOSE.  See the
   GNU Lesser General Public License for more details.
   
   Cite this work as:
   * C. Bannwarth, E. Caldeweyher, S. Ehlert, A. Hansen, P. Pracht,
     J. Seibert, S. Spicher, S. Grimme, WIREs Comput. Mol. Sci., 2020, 11,
     e01493. DOI: 10.1002/wcms.1493
   
   for GFN2-xTB:
   * C. Bannwarth, S. Ehlert and S. Grimme., J. Chem. Theory Comput., 2019,
     15, 1652-1671. DOI: 10.1021/acs.jctc.8b01176
   for GFN1-xTB:
   * S. Grimme, C. Bannwarth, P. Shushkov, J. Chem. Theory Comput., 2017,
     13, 1989-2009. DOI: 10.1021/acs.jctc.7b00118
   for GFN0-xTB:
   * P. Pracht, E. Caldeweyher, S. Ehlert, S. Grimme, ChemRxiv, 2019, preprint.
     DOI: 10.26434/chemrxiv.8326202.v1
   for GFN-FF:
   * S. Spicher and S. Grimme, Angew. Chem. Int. Ed., 2020, 59, 15665-15673.
     DOI: 10.1002/anie.202004239
   
   for ALPB and GBSA implicit solvation:
   * S. Ehlert, M. Stahn, S. Spicher, S. Grimme, J. Chem. Theory Comput.,
     2021, 17, 4250-4261. DOI: 10.1021/acs.jctc.1c00471
   
   for DFT-D4:
   * E. Caldeweyher, C. Bannwarth and S. Grimme, J. Chem. Phys., 2017,
     147, 034112. DOI: 10.1063/1.4993215
   * E. Caldeweyher, S. Ehlert, A. Hansen, H. Neugebauer, S. Spicher,
     C. Bannwarth and S. Grimme, J. Chem. Phys., 2019, 150, 154122.
     DOI: 10.1063/1.5090222
   * E. Caldeweyher, J.-M. Mewes, S. Ehlert and S. Grimme, Phys. Chem. Chem. Phys.
     2020, 22, 8499-8512. DOI: 10.1039/D0CP00502A
   
   for sTDA-xTB:
   * S. Grimme and C. Bannwarth, J. Chem. Phys., 2016, 145, 054103.
     DOI: 10.1063/1.4959605
   
   in the mass-spec context:
   * V. Asgeirsson, C. Bauer and S. Grimme, Chem. Sci., 2017, 8, 4879.
     DOI: 10.1039/c7sc00601b
   * J. Koopman and S. Grimme, ACS Omega 2019, 4, 12, 15120-15133.
     DOI: 10.1021/acsomega.9b02011
   
   for metadynamics refer to:
   * S. Grimme, J. Chem. Theory Comput., 2019, 155, 2847-2862
     DOI: 10.1021/acs.jctc.9b00143
   
   for SPH calculations refer to:
   * S. Spicher and S. Grimme, J. Chem. Theory Comput., 2021, 17, 1701-1714
     DOI: 10.1021/acs.jctc.0c01306
   
   with help from (in alphabetical order)
   P. Atkinson, C. Bannwarth, F. Bohle, G. Brandenburg, E. Caldeweyher
   M. Checinski, S. Dohm, S. Ehlert, S. Ehrlich, I. Gerasimov, C. Hölzer
   A. Katbashev, J. Koopman, C. Lavigne, S. Lehtola, F. März, M. Müller,
   F. Musil, H. Neugebauer, J. Pisarek, C. Plett, P. Pracht, F. Pultar,
   J. Seibert, P. Shushkov, S. Spicher, M. Stahn, M. Steiner, T. Strunk,
   J. Stückrath, T. Rose, and J. Unsleber
   
 * started run on 2025/05/23 at 12:05:46.612     

           -------------------------------------------------
          |                Calculation Setup                |
           -------------------------------------------------

          program call               : /gpfs/fs1/home/copan/code/autode-practice/.pixi/envs/default/bin/xtb path_opt6_xtb.xyz --chrg 0 --uhf 1 --opt --input xcontrol_path_opt6_xtb
          hostname                   : csed-0029
          coordinate file            : path_opt6_xtb.xyz
          omp threads                :                     8

   ID    Z sym.   atoms
    1    8 O      1, 2
    2    6 C      3-7
    3    1 H      8-14
constraining bond 2 6 to    2.2625000 Å, actual value:    2.3171860 Å
constraining bond 1 2 to    2.6438000 Å, actual value:    2.3853189 Å

molecular fragmentation (1/2 indicates fragments):
12222221222222
# atoms in fragment 1/2:     2    12
 fragment masses (1/2) :       17.01       82.10
CMA distance (Bohr)    :   6.503
constraining FC (au)   :  2.0000

           -------------------------------------------------
          |                 G F N 2 - x T B                 |
           -------------------------------------------------

        Reference                      10.1021/acs.jctc.8b01176
      * Hamiltonian:
        H0-scaling (s, p, d)           1.850000    2.230000    2.230000
        zeta-weighting                 0.500000
      * Dispersion:
        s8                             2.700000
        a1                             0.520000
        a2                             5.000000
        s9                             5.000000
      * Repulsion:
        kExp                           1.500000    1.000000
        rExp                           1.000000
      * Coulomb:
        alpha                          2.000000
        third order                    shell-resolved
        anisotropic                    true
        a3                             3.000000
        a5                             4.000000
        cn-shift                       1.200000
        cn-exp                         4.000000
        max-rad                        5.000000


          ...................................................
          :                      SETUP                      :
          :.................................................:
          :  # basis functions                  35          :
          :  # atomic orbitals                  35          :
          :  # shells                           21          :
          :  # electrons                        39          :
          :  max. iterations                   250          :
          :  Hamiltonian                  GFN2-xTB          :
          :  restarted?                      false          :
          :  GBSA solvation                  false          :
          :  PC potential                    false          :
          :  electronic temp.          300.0000000     K    :
          :  accuracy                    1.0000000          :
          :  -> integral cutoff          0.2500000E+02      :
          :  -> integral neglect         0.1000000E-07      :
          :  -> SCF convergence          0.1000000E-05 Eh   :
          :  -> wf. convergence          0.1000000E-03 e    :
          :  Broyden damping             0.4000000          :
          ...................................................

 iter      E             dE          RMSdq      gap      omega  full diag
   1    -22.2649547 -0.222650E+02  0.497E+00    4.47       0.0  T
   2    -20.4599478  0.180501E+01  0.867E+00    0.15       1.0  T
   3    -22.2198896 -0.175994E+01  0.406E+00    4.57       1.0  T
   4    -22.3845550 -0.164665E+00  0.208E+00    4.18       1.0  T
   5    -22.4523074 -0.677524E-01  0.113E+00    4.21       1.0  T
   6    -22.4623943 -0.100869E-01  0.860E-01    4.10       1.0  T
   7    -22.4449519  0.174424E-01  0.105E+00    4.05       1.0  T
   8    -22.4670164 -0.220645E-01  0.152E-01    3.89       1.0  T
   9    -22.4673790 -0.362548E-03  0.113E-01    3.84       1.0  T
  10    -22.4673981 -0.191066E-04  0.985E-02    3.82       1.0  T
  11    -22.4674031 -0.502954E-05  0.735E-02    3.80       1.0  T
  12    -22.4674247 -0.216112E-04  0.302E-02    3.78       1.0  T
  13    -22.4674434 -0.186420E-04  0.356E-03    3.79       7.5  T
  14    -22.4674429  0.456619E-06  0.679E-03    3.80       3.9  T
  15    -22.4674434 -0.480292E-06  0.216E-03    3.79      12.4  T
  16    -22.4674434 -0.557091E-07  0.488E-04    3.79      54.8  T
  17    -22.4674434 -0.165880E-09  0.400E-04    3.79      66.8  T

   *** convergence criteria satisfied after 17 iterations ***

         #    Occupation            Energy/Eh            Energy/eV
      -------------------------------------------------------------
         1        2.0000           -0.7392442             -20.1159
       ...           ...                  ...                  ...
        14        2.0000           -0.4884992             -13.2927
        15        2.0000           -0.4801452             -13.0654
        16        2.0000           -0.4601700             -12.5219
        17        2.0000           -0.4399229             -11.9709
        18        2.0000           -0.4135037             -11.2520
        19        1.9999           -0.4017658             -10.9326
        20        1.0001           -0.3844752             -10.4621 (HOMO)
        21                         -0.2450520              -6.6682 (LUMO)
        22                         -0.0934929              -2.5441
        23                          0.0608930               1.6570
        24                          0.0737139               2.0059
        25                          0.0917036               2.4954
       ...                                ...                  ...
        35                          0.6288010              17.1105
      -------------------------------------------------------------
                  HL-Gap            0.1394232 Eh            3.7939 eV
             Fermi-level           -0.3539420 Eh           -9.6313 eV

 SCC (total)                   0 d,  0 h,  0 min,  0.012 sec
 SCC setup                      ...        0 min,  0.000 sec (  1.571%)
 Dispersion                     ...        0 min,  0.000 sec (  0.976%)
 classical contributions        ...        0 min,  0.000 sec (  1.246%)
 integral evaluation            ...        0 min,  0.000 sec (  3.398%)
 iterations                     ...        0 min,  0.010 sec ( 83.359%)
 molecular gradient             ...        0 min,  0.001 sec (  7.420%)
 printout                       ...        0 min,  0.000 sec (  1.856%)

         :::::::::::::::::::::::::::::::::::::::::::::::::::::
         ::                     SUMMARY                     ::
         :::::::::::::::::::::::::::::::::::::::::::::::::::::
         :: total energy             -21.706393629372 Eh    ::
         :: gradient norm              3.025193079787 Eh/a0 ::
         :: HOMO-LUMO gap              3.793898076562 eV    ::
         ::.................................................::
         :: SCC energy               -22.467443435562 Eh    ::
         :: -> isotropic ES            0.052491022872 Eh    ::
         :: -> anisotropic ES         -0.004501511240 Eh    ::
         :: -> anisotropic XC          0.003964146221 Eh    ::
         :: -> dispersion             -0.008234220051 Eh    ::
         :: repulsion energy           0.262494497283 Eh    ::
         :: add. restraining           0.498542164567 Eh    ::
         :: total charge               0.000000000484 e     ::
         :::::::::::::::::::::::::::::::::::::::::::::::::::::

      ----------------------------------------------------------- 
     |                   =====================                   |
     |                        A N C O P T                        |
     |                   =====================                   |
     |               Approximate Normal Coordinate               |
     |                Rational Function Optimizer                |
      ----------------------------------------------------------- 

          ...................................................
          :                      SETUP                      :
          :.................................................:
          :   optimization level            normal          :
          :   max. optcycles                   200          :
          :   ANC micro-cycles                  20          :
          :   degrees of freedom                36          :
          :.................................................:
          :   RF solver                   davidson          :
          :   write xtbopt.log                true          :
          :   linear?                        false          :
          :   energy convergence         0.5000000E-05 Eh   :
          :   grad. convergence          0.1000000E-02 Eh/α :
          :   maxmium RF displ.          1.0000000          :
          :   Hlow (freq-cutoff)         0.1000000E-01      :
          :   Hmax (freq-cutoff)         5.0000000          :
          :   S6 in model hess.         20.0000000          :
          ...................................................

generating ANC from model Hessian ...
Using Lindh-Hessian (1995)
 Shifting diagonal of input Hessian by   0.67400955873514323     
 Lowest  eigenvalues of input Hessian
    0.010000    0.293318    0.000000    0.000000    0.000000    0.000000
    0.000000    0.000000    0.676851    0.678754    0.696141    0.701126
    0.716575    0.731493    0.735179    0.748806    0.755195    0.769950
 Highest eigenvalues
    2.107641    2.258423    2.494297    2.642648    5.290901   12.856293


........................................................................
.............................. CYCLE    1 ..............................
........................................................................

 iter      E             dE          RMSdq      gap      omega  full diag
   1    -22.4674434 -0.224674E+02  0.155E-04    3.79       0.0  T
   2    -22.4674434  0.133553E-08  0.309E-04    3.79      86.4  T
   3    -22.4674434 -0.173382E-08  0.139E-05    3.79    1921.1  T
     SCC iter.                  ...        0 min,  0.002 sec
     gradient                   ...        0 min,  0.001 sec
 * total energy  :   -21.7063936 Eh     change       -0.2947100E-08 Eh
   gradient norm :     3.0251952 Eh/α   predicted     0.0000000E+00 (-100.00%)
   displ. norm   :     0.4721594 α      lambda       -0.1426744E+01
   maximum displ.:     0.4298690 α      in ANC's #35, #36, #26, ...

........................................................................
.............................. CYCLE    2 ..............................
........................................................................

 iter      E             dE          RMSdq      gap      omega  full diag
   1    -22.2964871 -0.222965E+02  0.242E+00    4.05       0.0  T
   2    -20.2702007  0.202629E+01  0.935E+00    0.08       1.0  T
   3    -22.4060513 -0.213585E+01  0.138E+00    3.51       1.0  T
   4    -22.4149377 -0.888638E-02  0.104E+00    3.61       1.0  T
   5    -22.4322963 -0.173586E-01  0.234E-01    3.78       1.0  T
   6    -22.4302658  0.203044E-02  0.365E-01    3.80       1.0  T
   7    -22.4321604 -0.189457E-02  0.131E-01    3.83       1.0  T
   8    -22.4322974 -0.136965E-03  0.108E-01    3.82       1.0  T
   9    -22.4324594 -0.162035E-03  0.581E-02    3.80       1.0  T
  10    -22.4325257 -0.663391E-04  0.236E-02    3.81       1.1  T
  11    -22.4325279 -0.221257E-05  0.183E-02    3.81       1.5  T
  12    -22.4325319 -0.399439E-05  0.127E-02    3.81       2.1  T
  13    -22.4325354 -0.346947E-05  0.181E-03    3.81      14.8  T
  14    -22.4325355 -0.470576E-07  0.100E-03    3.81      26.6  T
  15    -22.4325354  0.160467E-07  0.129E-03    3.81      20.7  T
  16    -22.4325355 -0.365353E-07  0.267E-04    3.81     100.2  T
  17    -22.4325355  0.601784E-09  0.312E-04    3.81      85.6  T
     SCC iter.                  ...        0 min,  0.008 sec
     gradient                   ...        0 min,  0.001 sec
 * total energy  :   -21.9312004 Eh     change       -0.2248068E+00 Eh
   gradient norm :     2.4594295 Eh/α   predicted    -0.8724069E+00 ( 288.07%)
   displ. norm   :     0.2136384 α      lambda       -0.5010744E+00
   maximum displ.:     0.1933062 α      in ANC's #35, #36, #2, ...

........................................................................
.............................. CYCLE    3 ..............................
........................................................................

 iter      E             dE          RMSdq      gap      omega  full diag
   1    -22.4355526 -0.224356E+02  0.920E-01    3.53       0.0  T
   2    -22.2689961  0.166556E+00  0.294E+00    4.21       1.0  T
   3    -22.4482773 -0.179281E+00  0.363E-01    3.79       1.0  T
   4    -22.4490432 -0.765928E-03  0.301E-01    3.96       1.0  T
   5    -22.4492869 -0.243692E-03  0.276E-01    3.90       1.0  T
   6    -22.4506406 -0.135370E-02  0.632E-02    3.93       1.0  T
   7    -22.4503623  0.278276E-03  0.130E-01    3.94       1.0  T
   8    -22.4506974 -0.335070E-03  0.243E-02    3.93       1.1  T
   9    -22.4507086 -0.111734E-04  0.221E-03    3.92      12.1  T
  10    -22.4507085  0.450229E-07  0.214E-03    3.93      12.5  T
  11    -22.4507085 -0.480101E-08  0.201E-03    3.93      13.3  T
  12    -22.4507086 -0.737425E-07  0.375E-04    3.93      71.2  T
  13    -22.4507086 -0.104099E-08  0.204E-04    3.93     130.8  T
     SCC iter.                  ...        0 min,  0.007 sec
     gradient                   ...        0 min,  0.001 sec
 * total energy  :   -22.1920423 Eh     change       -0.2608419E+00 Eh
   gradient norm :     0.1039257 Eh/α   predicted    -0.2619720E+00 (   0.43%)
   displ. norm   :     0.0603825 α      lambda       -0.1900492E-02
   maximum displ.:     0.0509915 α      in ANC's #1, #19, #24, ...

........................................................................
.............................. CYCLE    4 ..............................
........................................................................

 iter      E             dE          RMSdq      gap      omega  full diag
   1    -22.4524986 -0.224525E+02  0.199E-01    3.92       0.0  T
   2    -22.3962654  0.562331E-01  0.161E+00    4.13       1.0  T
   3    -22.4532172 -0.569517E-01  0.642E-02    3.94       1.0  T
   4    -22.4532835 -0.662704E-04  0.263E-02    3.96       1.0  T
   5    -22.4532667  0.167268E-04  0.323E-02    3.97       1.0  T
   6    -22.4532827 -0.159826E-04  0.153E-02    3.96       1.7  T
   7    -22.4532869 -0.419083E-05  0.522E-03    3.96       5.1  T
   8    -22.4532872 -0.287598E-06  0.314E-03    3.96       8.5  T
   9    -22.4532873 -0.150183E-06  0.591E-04    3.96      45.3  T
  10    -22.4532873 -0.492673E-09  0.203E-04    3.96     131.4  T
     SCC iter.                  ...        0 min,  0.005 sec
     gradient                   ...        0 min,  0.001 sec
 * total energy  :   -22.1932712 Eh     change       -0.1228894E-02 Eh
   gradient norm :     0.0229006 Eh/α   predicted    -0.9537125E-03 ( -22.39%)
   displ. norm   :     0.1915384 α      lambda       -0.1409692E-02
   maximum displ.:     0.1845899 α      in ANC's #1, #19, #18, ...

........................................................................
.............................. CYCLE    5 ..............................
........................................................................

 iter      E             dE          RMSdq      gap      omega  full diag
   1    -22.4559266 -0.224559E+02  0.198E-01    4.00       0.0  T
   2    -22.4518650  0.406166E-02  0.447E-01    4.08       1.0  T
   3    -22.4550822 -0.321720E-02  0.244E-01    3.96       1.0  T
   4    -22.4558802 -0.798065E-03  0.966E-02    3.99       1.0  T
   5    -22.4559951 -0.114910E-03  0.491E-02    4.00       1.0  T
   6    -22.4560253 -0.301353E-04  0.270E-02    4.01       1.0  T
   7    -22.4560312 -0.591672E-05  0.145E-02    4.02       1.8  T
   8    -22.4560355 -0.429875E-05  0.318E-03    4.01       8.4  T
   9    -22.4560356 -0.131630E-06  0.120E-03    4.01      22.3  T
  10    -22.4560356 -0.119781E-07  0.216E-04    4.01     123.7  T
  11    -22.4560356  0.103255E-08  0.240E-04    4.01     111.2  T
     SCC iter.                  ...        0 min,  0.006 sec
     gradient                   ...        0 min,  0.001 sec
 * total energy  :   -22.1933293 Eh     change       -0.5807814E-04 Eh
   gradient norm :     0.0626189 Eh/α   predicted    -0.7307062E-03 (1158.14%)
   displ. norm   :     0.1719969 α      lambda       -0.1782200E-02
   maximum displ.:     0.1680931 α      in ANC's #1, #19, #18, ...

........................................................................
.............................. CYCLE    6 ..............................
........................................................................

 iter      E             dE          RMSdq      gap      omega  full diag
   1    -22.4569706 -0.224570E+02  0.236E-01    3.97       0.0  T
   2    -22.4054961  0.514746E-01  0.156E+00    4.19       1.0  T
   3    -22.4576965 -0.522004E-01  0.107E-01    4.00       1.0  T
   4    -22.4577419 -0.454265E-04  0.745E-02    4.02       1.0  T
   5    -22.4576996  0.423629E-04  0.678E-02    4.04       1.0  T
   6    -22.4577644 -0.647785E-04  0.362E-02    4.03       1.0  T
   7    -22.4577876 -0.232718E-04  0.940E-03    4.02       2.8  T
   8    -22.4577882 -0.553845E-06  0.445E-03    4.02       6.0  T
   9    -22.4577883 -0.108470E-06  0.107E-03    4.02      24.9  T
  10    -22.4577883  0.218112E-08  0.689E-04    4.02      38.8  T
  11    -22.4577883 -0.315665E-08  0.450E-04    4.02      59.4  T
     SCC iter.                  ...        0 min,  0.006 sec
     gradient                   ...        0 min,  0.001 sec
 * total energy  :   -22.1941572 Eh     change       -0.8278946E-03 Eh
   gradient norm :     0.0524012 Eh/α   predicted    -0.9174627E-03 (  10.82%)
   displ. norm   :     0.0110002 α      lambda       -0.3020788E-03
   maximum displ.:     0.0055144 α      in ANC's #2, #24, #35, ...

........................................................................
.............................. CYCLE    7 ..............................
........................................................................

 iter      E             dE          RMSdq      gap      omega  full diag
   1    -22.4566290 -0.224566E+02  0.187E-02    4.00       0.0  T
   2    -22.4565362  0.928227E-04  0.692E-02    3.98       1.0  T
   3    -22.4566317 -0.955174E-04  0.106E-02    4.00       2.5  T
   4    -22.4566319 -0.243611E-06  0.418E-03    4.00       6.4  T
   5    -22.4566321 -0.198899E-06  0.182E-03    4.00      14.7  T
   6    -22.4566322 -0.223690E-07  0.858E-04    4.00      31.2  T
   7    -22.4566322 -0.998372E-08  0.280E-04    4.00      95.3  T
     SCC iter.                  ...        0 min,  0.004 sec
     gradient                   ...        0 min,  0.001 sec
 * total energy  :   -22.1943440 Eh     change       -0.1867877E-03 Eh
   gradient norm :     0.0089807 Eh/α   predicted    -0.1510569E-03 ( -19.13%)
   displ. norm   :     0.0288942 α      lambda       -0.1353614E-03
   maximum displ.:     0.0226814 α      in ANC's #1, #19, #18, ...

........................................................................
.............................. CYCLE    8 ..............................
........................................................................

 iter      E             dE          RMSdq      gap      omega  full diag
   1    -22.4565709 -0.224566E+02  0.387E-02    3.98       0.0  T
   2    -22.4564567  0.114248E-03  0.765E-02    4.00       1.0  T
   3    -22.4565323 -0.756397E-04  0.501E-02    3.97       1.0  T
   4    -22.4565737 -0.413390E-04  0.718E-03    3.98       3.7  T
   5    -22.4565741 -0.393999E-06  0.436E-03    3.98       6.1  T
   6    -22.4565742 -0.167265E-06  0.287E-03    3.98       9.3  T
   7    -22.4565743 -0.926295E-07  0.683E-04    3.98      39.1  T
   8    -22.4565743 -0.455137E-08  0.283E-04    3.98      94.5  T
     SCC iter.                  ...        0 min,  0.004 sec
     gradient                   ...        0 min,  0.001 sec
 * total energy  :   -22.1944355 Eh     change       -0.9156449E-04 Eh
   gradient norm :     0.0092180 Eh/α   predicted    -0.6773763E-04 ( -26.02%)
   displ. norm   :     0.0189460 α      lambda       -0.5963819E-04
   maximum displ.:     0.0093649 α      in ANC's #19, #1, #18, ...

........................................................................
.............................. CYCLE    9 ..............................
........................................................................

 iter      E             dE          RMSdq      gap      omega  full diag
   1    -22.4566368 -0.224566E+02  0.386E-02    3.97       0.0  T
   2    -22.4560100  0.626855E-03  0.175E-01    4.00       1.0  T
   3    -22.4566471 -0.637147E-03  0.220E-02    3.97       1.2  T
   4    -22.4566516 -0.446784E-05  0.550E-03    3.97       4.9  T
   5    -22.4566519 -0.351338E-06  0.189E-03    3.97      14.1  T
   6    -22.4566519 -0.835894E-08  0.152E-03    3.97      17.6  T
   7    -22.4566520 -0.249837E-07  0.750E-04    3.97      35.6  T
   8    -22.4566520 -0.619480E-08  0.164E-04    3.97     162.6  T
     SCC iter.                  ...        0 min,  0.004 sec
     gradient                   ...        0 min,  0.001 sec
 * total energy  :   -22.1944748 Eh     change       -0.3927664E-04 Eh
   gradient norm :     0.0081664 Eh/α   predicted    -0.2982880E-04 ( -24.05%)
   displ. norm   :     0.0113631 α      lambda       -0.2781168E-04
   maximum displ.:     0.0055441 α      in ANC's #9, #4, #19, ...

........................................................................
.............................. CYCLE   10 ..............................
........................................................................

 iter      E             dE          RMSdq      gap      omega  full diag
   1    -22.4567561 -0.224568E+02  0.176E-02    3.96       0.0  T
   2    -22.4567144  0.416506E-04  0.463E-02    3.97       1.0  T
   3    -22.4567553 -0.408220E-04  0.130E-02    3.96       2.1  T
   4    -22.4567572 -0.189991E-05  0.246E-03    3.97      10.9  T
   5    -22.4567572 -0.681161E-07  0.101E-03    3.97      26.5  T
   6    -22.4567572 -0.151844E-07  0.386E-04    3.97      69.2  T
   7    -22.4567572 -0.125378E-08  0.176E-04    3.97     152.1  T
     SCC iter.                  ...        0 min,  0.004 sec
     gradient                   ...        0 min,  0.001 sec
 * total energy  :   -22.1944954 Eh     change       -0.2061293E-04 Eh
   gradient norm :     0.0040175 Eh/α   predicted    -0.1390840E-04 ( -32.53%)
   displ. norm   :     0.0143115 α      lambda       -0.2862414E-04
   maximum displ.:     0.0072853 α      in ANC's #9, #4, #15, ...

........................................................................
.............................. CYCLE   11 ..............................
........................................................................

 iter      E             dE          RMSdq      gap      omega  full diag
   1    -22.4568378 -0.224568E+02  0.196E-02    3.96       0.0  T
   2    -22.4568275  0.103646E-04  0.257E-02    3.97       1.0  T
   3    -22.4568227  0.478021E-05  0.283E-02    3.96       1.0  T
   4    -22.4568379 -0.152470E-04  0.494E-03    3.96       5.4  T
   5    -22.4568382 -0.269279E-06  0.438E-04    3.96      61.1  T
   6    -22.4568382 -0.137691E-08  0.213E-04    3.96     125.4  T
     SCC iter.                  ...        0 min,  0.003 sec
     gradient                   ...        0 min,  0.001 sec
 * total energy  :   -22.1945157 Eh     change       -0.2029909E-04 Eh
   gradient norm :     0.0040360 Eh/α   predicted    -0.1431511E-04 ( -29.48%)
   displ. norm   :     0.0148127 α      lambda       -0.2298492E-04
   maximum displ.:     0.0072026 α      in ANC's #9, #4, #15, ...

........................................................................
.............................. CYCLE   12 ..............................
........................................................................

 iter      E             dE          RMSdq      gap      omega  full diag
   1    -22.4568143 -0.224568E+02  0.189E-02    3.97       0.0  T
   2    -22.4568140  0.246555E-06  0.111E-02    3.97       2.4  T
   3    -22.4567844  0.296908E-04  0.386E-02    3.98       1.0  T
   4    -22.4568138 -0.294082E-04  0.655E-03    3.97       4.1  T
   5    -22.4568144 -0.631312E-06  0.103E-03    3.97      26.1  T
   6    -22.4568144 -0.180010E-07  0.256E-04    3.97     104.6  T
   7    -22.4568144  0.202494E-09  0.181E-04    3.97     147.3  T
     SCC iter.                  ...        0 min,  0.004 sec
     gradient                   ...        0 min,  0.001 sec
 * total energy  :   -22.1945328 Eh     change       -0.1704491E-04 Eh
   gradient norm :     0.0058972 Eh/α   predicted    -0.1149492E-04 ( -32.56%)
   displ. norm   :     0.0176534 α      lambda       -0.2416043E-04
   maximum displ.:     0.0086488 α      in ANC's #4, #9, #5, ...

........................................................................
.............................. CYCLE   13 ..............................
........................................................................

 iter      E             dE          RMSdq      gap      omega  full diag
   1    -22.4566476 -0.224566E+02  0.208E-02    3.98       0.0  T
   2    -22.4566432  0.444920E-05  0.181E-02    3.97       1.5  T
   3    -22.4565921  0.510161E-04  0.531E-02    3.99       1.0  T
   4    -22.4566475 -0.553906E-04  0.518E-03    3.98       5.2  T
   5    -22.4566478 -0.293308E-06  0.134E-03    3.98      19.9  T
   6    -22.4566479 -0.320219E-07  0.267E-04    3.98     100.1  T
   7    -22.4566479  0.264055E-09  0.170E-04    3.98     157.0  T
     SCC iter.                  ...        0 min,  0.004 sec
     gradient                   ...        0 min,  0.001 sec
 * total energy  :   -22.1945497 Eh     change       -0.1698090E-04 Eh
   gradient norm :     0.0051620 Eh/α   predicted    -0.1208531E-04 ( -28.83%)
   displ. norm   :     0.0140637 α      lambda       -0.1673352E-04
   maximum displ.:     0.0077403 α      in ANC's #4, #5, #9, ...

........................................................................
.............................. CYCLE   14 ..............................
........................................................................

 iter      E             dE          RMSdq      gap      omega  full diag
   1    -22.4564111 -0.224564E+02  0.150E-02    3.98       0.0  T
   2    -22.4564055  0.558858E-05  0.179E-02    3.98       1.5  T
   3    -22.4563943  0.111732E-04  0.300E-02    3.99       1.0  T
   4    -22.4564112 -0.168697E-04  0.230E-03    3.98      11.6  T
   5    -22.4564113 -0.905277E-07  0.675E-04    3.98      39.6  T
   6    -22.4564113 -0.496202E-08  0.242E-04    3.98     110.4  T
     SCC iter.                  ...        0 min,  0.003 sec
     gradient                   ...        0 min,  0.001 sec
 * total energy  :   -22.1945617 Eh     change       -0.1194516E-04 Eh
   gradient norm :     0.0028742 Eh/α   predicted    -0.8370515E-05 ( -29.93%)
   displ. norm   :     0.0123791 α      lambda       -0.1328965E-04
   maximum displ.:     0.0074908 α      in ANC's #4, #5, #9, ...

........................................................................
.............................. CYCLE   15 ..............................
........................................................................

 iter      E             dE          RMSdq      gap      omega  full diag
   1    -22.4561752 -0.224562E+02  0.126E-02    3.98       0.0  T
   2    -22.4561708  0.436775E-05  0.159E-02    3.98       1.7  T
   3    -22.4561648  0.597736E-05  0.237E-02    3.99       1.1  T
   4    -22.4561752 -0.104189E-04  0.272E-03    3.98       9.8  T
   5    -22.4561753 -0.865491E-07  0.456E-04    3.98      58.6  T
   6    -22.4561753 -0.673943E-09  0.327E-04    3.98      81.6  T
     SCC iter.                  ...        0 min,  0.003 sec
     gradient                   ...        0 min,  0.001 sec
 * total energy  :   -22.1945714 Eh     change       -0.9720065E-05 Eh
   gradient norm :     0.0027907 Eh/α   predicted    -0.6644526E-05 ( -31.64%)
   displ. norm   :     0.0142055 α      lambda       -0.1348054E-04
   maximum displ.:     0.0091499 α      in ANC's #4, #5, #2, ...

........................................................................
.............................. CYCLE   16 ..............................
........................................................................

 iter      E             dE          RMSdq      gap      omega  full diag
   1    -22.4559735 -0.224560E+02  0.147E-02    3.98       0.0  T
   2    -22.4559699  0.363803E-05  0.156E-02    3.98       1.7  T
   3    -22.4559548  0.150740E-04  0.312E-02    3.99       1.0  T
   4    -22.4559734 -0.185853E-04  0.487E-03    3.98       5.5  T
   5    -22.4559737 -0.303002E-06  0.799E-04    3.98      33.4  T
   6    -22.4559737 -0.883869E-08  0.352E-04    3.98      76.0  T
     SCC iter.                  ...        0 min,  0.003 sec
     gradient                   ...        0 min,  0.001 sec
 * total energy  :   -22.1945815 Eh     change       -0.1011769E-04 Eh
   gradient norm :     0.0043186 Eh/α   predicted    -0.6741251E-05 ( -33.37%)
   displ. norm   :     0.0196724 α      lambda       -0.1667720E-04
   maximum displ.:     0.0132798 α      in ANC's #4, #5, #2, ...

........................................................................
.............................. CYCLE   17 ..............................
........................................................................

 iter      E             dE          RMSdq      gap      omega  full diag
   1    -22.4558421 -0.224558E+02  0.205E-02    3.98       0.0  T
   2    -22.4558384  0.366308E-05  0.179E-02    3.97       1.5  T
   3    -22.4557936  0.448240E-04  0.495E-02    3.98       1.0  T
   4    -22.4558414 -0.478362E-04  0.773E-03    3.97       3.5  T
   5    -22.4558423 -0.886951E-06  0.146E-03    3.98      18.3  T
   6    -22.4558424 -0.394938E-07  0.435E-04    3.98      61.4  T
   7    -22.4558424 -0.427512E-09  0.164E-04    3.98     163.2  T
     SCC iter.                  ...        0 min,  0.004 sec
     gradient                   ...        0 min,  0.001 sec
 * total energy  :   -22.1945939 Eh     change       -0.1234224E-04 Eh
   gradient norm :     0.0048804 Eh/α   predicted    -0.8343349E-05 ( -32.40%)
   displ. norm   :     0.0234844 α      lambda       -0.1789511E-04
   maximum displ.:     0.0165144 α      in ANC's #4, #5, #2, ...

........................................................................
.............................. CYCLE   18 ..............................
........................................................................

 iter      E             dE          RMSdq      gap      omega  full diag
   1    -22.4558760 -0.224559E+02  0.241E-02    3.97       0.0  T
   2    -22.4558746  0.137623E-05  0.167E-02    3.97       1.6  T
   3    -22.4557950  0.796100E-04  0.631E-02    3.98       1.0  T
   4    -22.4558746 -0.795207E-04  0.972E-03    3.97       2.7  T
   5    -22.4558762 -0.165139E-05  0.157E-03    3.97      17.0  T
   6    -22.4558763 -0.456580E-07  0.513E-04    3.97      52.1  T
   7    -22.4558763 -0.149407E-08  0.156E-04    3.97     171.8  T
     SCC iter.                  ...        0 min,  0.004 sec
     gradient                   ...        0 min,  0.001 sec
 * total energy  :   -22.1946068 Eh     change       -0.1289481E-04 Eh
   gradient norm :     0.0037975 Eh/α   predicted    -0.8951453E-05 ( -30.58%)
   displ. norm   :     0.0212446 α      lambda       -0.1517022E-04
   maximum displ.:     0.0156134 α      in ANC's #4, #5, #2, ...

........................................................................
.............................. CYCLE   19 ..............................
........................................................................

 iter      E             dE          RMSdq      gap      omega  full diag
   1    -22.4561059 -0.224561E+02  0.212E-02    3.97       0.0  T
   2    -22.4561058  0.887432E-07  0.132E-02    3.97       2.0  T
   3    -22.4560796  0.261434E-04  0.358E-02    3.98       1.0  T
   4    -22.4561047 -0.250560E-04  0.799E-03    3.97       3.3  T
   5    -22.4561059 -0.126011E-05  0.845E-04    3.97      31.6  T
   6    -22.4561059 -0.547214E-08  0.556E-04    3.97      48.1  T
   7    -22.4561059 -0.297511E-08  0.164E-04    3.97     162.7  T
     SCC iter.                  ...        0 min,  0.004 sec
     gradient                   ...        0 min,  0.001 sec
 * total energy  :   -22.1946176 Eh     change       -0.1081258E-04 Eh
   gradient norm :     0.0024975 Eh/α   predicted    -0.7589267E-05 ( -29.81%)
   displ. norm   :     0.0167782 α      lambda       -0.1184414E-04
   maximum displ.:     0.0129666 α      in ANC's #4, #5, #2, ...

........................................................................
.............................. CYCLE   20 ..............................
........................................................................

 iter      E             dE          RMSdq      gap      omega  full diag
   1    -22.4564374 -0.224564E+02  0.164E-02    3.97       0.0  T
   2    -22.4564374 -0.304134E-08  0.100E-02    3.97       2.7  T
   3    -22.4564333  0.413557E-05  0.142E-02    3.97       1.9  T
   4    -22.4564374 -0.414095E-05  0.115E-03    3.97      23.3  T
   5    -22.4564374 -0.169069E-07  0.576E-04    3.97      46.4  T
   6    -22.4564374 -0.165691E-08  0.362E-04    3.97      73.8  T
     SCC iter.                  ...        0 min,  0.003 sec
     gradient                   ...        0 min,  0.001 sec
 * total energy  :   -22.1946262 Eh     change       -0.8633929E-05 Eh
   gradient norm :     0.0028621 Eh/α   predicted    -0.5924581E-05 ( -31.38%)
   displ. norm   :     0.0167592 α      lambda       -0.1155520E-04
   maximum displ.:     0.0134971 α      in ANC's #4, #5, #2, ...
 * RMSD in coord.:     0.1213691 α      energy gain  -0.4882326E+00 Eh

generating ANC from model Hessian ...
Using Lindh-Hessian (1995)
 Shifting diagonal of input Hessian by    1.1221276296971821E-002
 Lowest  eigenvalues of input Hessian
    0.010000    0.000000    0.000000    0.000000    0.000000    0.000000
    0.000000    0.012080    0.012414    0.013065    0.033331    0.037168
    0.050894    0.069096    0.072525    0.084153    0.092318    0.107270
 Highest eigenvalues
    1.449895    1.600429    1.817894    1.980518    4.664347   12.132377


........................................................................
.............................. CYCLE   21 ..............................
........................................................................

 iter      E             dE          RMSdq      gap      omega  full diag
   1    -22.4567882 -0.224568E+02  0.166E-02    3.97       0.0  T
   2    -22.4567865  0.164416E-05  0.131E-02    3.97       2.0  T
   3    -22.4567455  0.410442E-04  0.461E-02    3.98       1.0  T
   4    -22.4567882 -0.426883E-04  0.235E-03    3.97      11.4  T
   5    -22.4567882 -0.806939E-07  0.867E-04    3.97      30.8  T
   6    -22.4567882 -0.100569E-07  0.310E-04    3.97      86.1  T
     SCC iter.                  ...        0 min,  0.003 sec
     gradient                   ...        0 min,  0.001 sec
 * total energy  :   -22.1946349 Eh     change       -0.8716980E-05 Eh
   gradient norm :     0.0035132 Eh/α   predicted     0.0000000E+00 (-100.00%)
   displ. norm   :     0.0544402 α      lambda       -0.5912561E-04
   maximum displ.:     0.0482411 α      in ANC's #4, #3, #6, ...

........................................................................
.............................. CYCLE   22 ..............................
........................................................................

 iter      E             dE          RMSdq      gap      omega  full diag
   1    -22.4563606 -0.224564E+02  0.823E-02    3.98       0.0  T
   2    -22.4546806  0.167994E-02  0.293E-01    3.90       1.0  T
   3    -22.4564222 -0.174157E-02  0.381E-02    3.97       1.0  T
   4    -22.4564262 -0.397687E-05  0.125E-02    3.97       2.1  T
   5    -22.4564282 -0.199657E-05  0.343E-03    3.97       7.8  T
   6    -22.4564283 -0.177332E-06  0.126E-03    3.97      21.1  T
   7    -22.4564283 -0.307787E-08  0.771E-04    3.97      34.7  T
   8    -22.4564284 -0.100073E-07  0.205E-04    3.97     130.6  T
     SCC iter.                  ...        0 min,  0.004 sec
     gradient                   ...        0 min,  0.001 sec
 * total energy  :   -22.1946829 Eh     change       -0.4794831E-04 Eh
   gradient norm :     0.0038245 Eh/α   predicted    -0.2965112E-04 ( -38.16%)
   displ. norm   :     0.1034491 α      lambda       -0.7641847E-04
   maximum displ.:     0.0939618 α      in ANC's #4, #3, #6, ...

........................................................................
.............................. CYCLE   23 ..............................
........................................................................

 iter      E             dE          RMSdq      gap      omega  full diag
   1    -22.4557206 -0.224557E+02  0.129E-01    3.98       0.0  T
   2    -22.4533972  0.232341E-02  0.351E-01    3.88       1.0  T
   3    -22.4557723 -0.237509E-02  0.791E-02    3.97       1.0  T
   4    -22.4558187 -0.464209E-04  0.145E-02    3.96       1.8  T
   5    -22.4558217 -0.293566E-05  0.309E-03    3.96       8.7  T
   6    -22.4558217 -0.154012E-08  0.218E-03    3.96      12.3  T
   7    -22.4558217 -0.834255E-09  0.147E-03    3.96      18.2  T
   8    -22.4558217 -0.394762E-07  0.322E-04    3.96      82.9  T
   9    -22.4558217 -0.119485E-09  0.113E-04    3.96     236.6  T
     SCC iter.                  ...        0 min,  0.005 sec
     gradient                   ...        0 min,  0.001 sec
 * total energy  :   -22.1947280 Eh     change       -0.4511822E-04 Eh
   gradient norm :     0.0091205 Eh/α   predicted    -0.3861998E-04 ( -14.40%)
   displ. norm   :     0.0458499 α      lambda       -0.3631757E-04
   maximum displ.:     0.0451073 α      in ANC's #4, #7, #10, ...

........................................................................
.............................. CYCLE   24 ..............................
........................................................................

 iter      E             dE          RMSdq      gap      omega  full diag
   1    -22.4559010 -0.224559E+02  0.523E-02    3.97       0.0  T
   2    -22.4553515  0.549476E-03  0.166E-01    3.93       1.0  T
   3    -22.4559022 -0.550723E-03  0.381E-02    3.97       1.0  T
   4    -22.4559189 -0.166943E-04  0.243E-03    3.97      11.0  T
   5    -22.4559190 -0.443670E-07  0.146E-03    3.97      18.2  T
   6    -22.4559190 -0.171294E-07  0.777E-04    3.97      34.4  T
   7    -22.4559190 -0.141328E-08  0.253E-04    3.97     105.8  T
     SCC iter.                  ...        0 min,  0.004 sec
     gradient                   ...        0 min,  0.001 sec
 * total energy  :   -22.1947542 Eh     change       -0.2624578E-04 Eh
   gradient norm :     0.0061319 Eh/α   predicted    -0.1819625E-04 ( -30.67%)
   displ. norm   :     0.0645571 α      lambda       -0.4567017E-04
   maximum displ.:     0.0624778 α      in ANC's #4, #3, #29, ...

........................................................................
.............................. CYCLE   25 ..............................
........................................................................

 iter      E             dE          RMSdq      gap      omega  full diag
   1    -22.4564417 -0.224564E+02  0.680E-02    3.98       0.0  T
   2    -22.4554467  0.994969E-03  0.222E-01    3.92       1.0  T
   3    -22.4564303 -0.983581E-03  0.573E-02    3.98       1.0  T
   4    -22.4564748 -0.445377E-04  0.671E-03    3.97       4.0  T
   5    -22.4564755 -0.685717E-06  0.266E-03    3.97      10.0  T
   6    -22.4564756 -0.818481E-07  0.109E-03    3.97      24.4  T
   7    -22.4564756 -0.335941E-09  0.609E-04    3.97      43.9  T
   8    -22.4564756 -0.302388E-08  0.230E-04    3.97     116.1  T
     SCC iter.                  ...        0 min,  0.004 sec
     gradient                   ...        0 min,  0.001 sec
 * total energy  :   -22.1947905 Eh     change       -0.3629442E-04 Eh
   gradient norm :     0.0064281 Eh/α   predicted    -0.2293085E-04 ( -36.82%)
   displ. norm   :     0.1749670 α      lambda       -0.7832834E-04
   maximum displ.:     0.1733241 α      in ANC's #4, #29, #3, ...

........................................................................
.............................. CYCLE   26 ..............................
........................................................................

 iter      E             dE          RMSdq      gap      omega  full diag
   1    -22.4560033 -0.224560E+02  0.183E-01    3.99       0.0  T
   2    -22.4519064  0.409693E-02  0.464E-01    3.85       1.0  T
   3    -22.4559620 -0.405565E-02  0.138E-01    3.99       1.0  T
   4    -22.4561703 -0.208257E-03  0.310E-02    3.97       1.0  T
   5    -22.4561884 -0.181134E-04  0.848E-03    3.98       3.2  T
   6    -22.4561889 -0.488683E-06  0.655E-03    3.97       4.1  T
   7    -22.4561897 -0.789333E-06  0.157E-03    3.98      17.0  T
   8    -22.4561897 -0.331729E-07  0.625E-04    3.98      42.7  T
   9    -22.4561897 -0.158555E-08  0.472E-04    3.98      56.6  T
     SCC iter.                  ...        0 min,  0.005 sec
     gradient                   ...        0 min,  0.001 sec
 * total energy  :   -22.1948434 Eh     change       -0.5283383E-04 Eh
   gradient norm :     0.0070041 Eh/α   predicted    -0.4036305E-04 ( -23.60%)
   displ. norm   :     0.1165104 α      lambda       -0.5026480E-04
   maximum displ.:     0.1096564 α      in ANC's #4, #3, #29, ...

........................................................................
.............................. CYCLE   27 ..............................
........................................................................

 iter      E             dE          RMSdq      gap      omega  full diag
   1    -22.4561908 -0.224562E+02  0.120E-01    3.99       0.0  T
   2    -22.4530527  0.313814E-02  0.396E-01    3.88       1.0  T
   3    -22.4561991 -0.314643E-02  0.909E-02    3.99       1.0  T
   4    -22.4563051 -0.106029E-03  0.133E-02    3.98       2.0  T
   5    -22.4563081 -0.294662E-05  0.452E-03    3.98       5.9  T
   6    -22.4563083 -0.185624E-06  0.186E-03    3.98      14.4  T
   7    -22.4563083  0.674312E-09  0.112E-03    3.98      23.8  T
   8    -22.4563083 -0.536312E-08  0.676E-04    3.98      39.5  T
   9    -22.4563083 -0.573018E-08  0.345E-04    3.98      77.4  T
     SCC iter.                  ...        0 min,  0.005 sec
     gradient                   ...        0 min,  0.001 sec
 * total energy  :   -22.1948796 Eh     change       -0.3624523E-04 Eh
   gradient norm :     0.0059905 Eh/α   predicted    -0.2547114E-04 ( -29.73%)
   displ. norm   :     0.0777322 α      lambda       -0.4269295E-04
   maximum displ.:     0.0677239 α      in ANC's #4, #3, #29, ...

........................................................................
.............................. CYCLE   28 ..............................
........................................................................

 iter      E             dE          RMSdq      gap      omega  full diag
   1    -22.4567702 -0.224568E+02  0.951E-02    3.99       0.0  T
   2    -22.4537774  0.299283E-02  0.383E-01    3.89       1.0  T
   3    -22.4568154 -0.303802E-02  0.649E-02    3.99       1.0  T
   4    -22.4568730 -0.576369E-04  0.909E-03    3.98       2.9  T
   5    -22.4568739 -0.864287E-06  0.338E-03    3.98       7.9  T
   6    -22.4568740 -0.108406E-06  0.111E-03    3.98      24.0  T
   7    -22.4568740 -0.270752E-08  0.528E-04    3.98      50.6  T
   8    -22.4568740  0.142332E-08  0.376E-04    3.98      71.0  T
     SCC iter.                  ...        0 min,  0.004 sec
     gradient                   ...        0 min,  0.001 sec
 * total energy  :   -22.1949009 Eh     change       -0.2124129E-04 Eh
   gradient norm :     0.0021495 Eh/α   predicted    -0.2147701E-04 (   1.11%)
   displ. norm   :     0.1887846 α      lambda       -0.3838994E-04
   maximum displ.:     0.1835634 α      in ANC's #4, #3, #29, ...

........................................................................
.............................. CYCLE   29 ..............................
........................................................................

 iter      E             dE          RMSdq      gap      omega  full diag
   1    -22.4552583 -0.224553E+02  0.191E-01    4.00       0.0  T
   2    -22.4499651  0.529322E-02  0.522E-01    3.85       1.0  T
   3    -22.4552313 -0.526616E-02  0.141E-01    3.99       1.0  T
   4    -22.4554487 -0.217398E-03  0.303E-02    3.97       1.0  T
   5    -22.4554662 -0.175873E-04  0.673E-03    3.98       4.0  T
   6    -22.4554663 -0.952835E-07  0.457E-03    3.98       5.9  T
   7    -22.4554664 -0.978773E-07  0.296E-03    3.98       9.0  T
   8    -22.4554665 -0.787668E-07  0.212E-03    3.98      12.6  T
   9    -22.4554666 -0.730474E-07  0.883E-04    3.98      30.3  T
  10    -22.4554666 -0.149148E-07  0.160E-04    3.98     166.7  T
     SCC iter.                  ...        0 min,  0.005 sec
     gradient                   ...        0 min,  0.001 sec
 * total energy  :   -22.1948827 Eh     change        0.1815045E-04 Eh
   gradient norm :     0.0083854 Eh/α   predicted    -0.1987630E-04 (-209.51%)
   displ. norm   :     0.1248696 α      lambda       -0.8514916E-04
   maximum displ.:     0.1223497 α      in ANC's #4, #3, #29, ...

........................................................................
.............................. CYCLE   30 ..............................
........................................................................

 iter      E             dE          RMSdq      gap      omega  full diag
   1    -22.4566762 -0.224567E+02  0.123E-01    3.97       0.0  T
   2    -22.4522226  0.445363E-02  0.458E-01    4.04       1.0  T
   3    -22.4564948 -0.427221E-02  0.128E-01    3.96       1.0  T
   4    -22.4567134 -0.218589E-03  0.368E-02    3.97       1.0  T
   5    -22.4567378 -0.244502E-04  0.136E-02    3.98       2.0  T
   6    -22.4567415 -0.360551E-05  0.312E-03    3.98       8.6  T
   7    -22.4567415 -0.514758E-07  0.199E-03    3.98      13.4  T
   8    -22.4567416 -0.449993E-07  0.111E-03    3.98      24.0  T
   9    -22.4567416 -0.202866E-07  0.440E-04    3.98      60.7  T
  10    -22.4567416 -0.319895E-08  0.107E-04    3.98     249.4  T
     SCC iter.                  ...        0 min,  0.005 sec
     gradient                   ...        0 min,  0.001 sec
 * total energy  :   -22.1949114 Eh     change       -0.2866492E-04 Eh
   gradient norm :     0.0010060 Eh/α   predicted    -0.4323855E-04 (  50.84%)
   displ. norm   :     0.0436298 α      lambda       -0.3979804E-05
   maximum displ.:     0.0406518 α      in ANC's #4, #1, #2, ...

........................................................................
.............................. CYCLE   31 ..............................
........................................................................

 iter      E             dE          RMSdq      gap      omega  full diag
   1    -22.4566196 -0.224566E+02  0.474E-02    3.98       0.0  T
   2    -22.4560112  0.608480E-03  0.172E-01    3.95       1.0  T
   3    -22.4566124 -0.601231E-03  0.401E-02    3.98       1.0  T
   4    -22.4566341 -0.217647E-04  0.309E-03    3.98       8.7  T
   5    -22.4566343 -0.104677E-06  0.171E-03    3.98      15.6  T
   6    -22.4566343 -0.141270E-07  0.110E-03    3.98      24.2  T
   7    -22.4566343 -0.902637E-08  0.478E-04    3.98      55.9  T
   8    -22.4566343 -0.166163E-08  0.219E-04    3.98     122.0  T
     SCC iter.                  ...        0 min,  0.004 sec
     gradient                   ...        0 min,  0.001 sec
 * total energy  :   -22.1949161 Eh     change       -0.4743573E-05 Eh
   gradient norm :     0.0013847 Eh/α   predicted    -0.1991209E-05 ( -58.02%)
   displ. norm   :     0.0835221 α      lambda       -0.5935221E-05
   maximum displ.:     0.0744289 α      in ANC's #4, #2, #1, ...

........................................................................
.............................. CYCLE   32 ..............................
........................................................................

 iter      E             dE          RMSdq      gap      omega  full diag
   1    -22.4564056 -0.224564E+02  0.915E-02    3.99       0.0  T
   2    -22.4544296  0.197599E-02  0.312E-01    3.92       1.0  T
   3    -22.4563890 -0.195940E-02  0.740E-02    3.99       1.0  T
   4    -22.4564589 -0.698914E-04  0.996E-03    3.98       2.7  T
   5    -22.4564607 -0.174468E-05  0.369E-03    3.98       7.2  T
   6    -22.4564606  0.357807E-07  0.323E-03    3.98       8.3  T
   7    -22.4564607 -0.123684E-06  0.916E-04    3.98      29.2  T
   8    -22.4564607  0.101378E-08  0.713E-04    3.98      37.5  T
     SCC iter.                  ...        0 min,  0.004 sec
     gradient                   ...        0 min,  0.001 sec
 * total energy  :   -22.1949207 Eh     change       -0.4615775E-05 Eh
   gradient norm :     0.0023377 Eh/α   predicted    -0.2976637E-05 ( -35.51%)
   displ. norm   :     0.0119640 α      lambda       -0.3250852E-05
   maximum displ.:     0.0095715 α      in ANC's #2, #3, #1, ...

........................................................................
.............................. CYCLE   33 ..............................
........................................................................

 iter      E             dE          RMSdq      gap      omega  full diag
   1    -22.4565769 -0.224566E+02  0.111E-02    3.98       0.0  T
   2    -22.4565400  0.368856E-04  0.422E-02    3.97       1.0  T
   3    -22.4565762 -0.362830E-04  0.988E-03    3.98       2.7  T
   4    -22.4565775 -0.128423E-05  0.214E-03    3.98      12.5  T
   5    -22.4565776 -0.567597E-07  0.137E-03    3.98      19.5  T
   6    -22.4565776 -0.732101E-08  0.104E-03    3.98      25.7  T
   7    -22.4565776 -0.125672E-07  0.279E-04    3.98      95.7  T
   8    -22.4565776 -0.114551E-08  0.106E-04    3.98     252.2  T
     SCC iter.                  ...        0 min,  0.004 sec
     gradient                   ...        0 min,  0.001 sec
 * total energy  :   -22.1949234 Eh     change       -0.2684162E-05 Eh
   gradient norm :     0.0019783 Eh/α   predicted    -0.1626530E-05 ( -39.40%)
   displ. norm   :     0.0717184 α      lambda       -0.8067998E-05
   maximum displ.:     0.0548926 α      in ANC's #2, #4, #1, ...

........................................................................
.............................. CYCLE   34 ..............................
........................................................................

 iter      E             dE          RMSdq      gap      omega  full diag
   1    -22.4569563 -0.224570E+02  0.704E-02    3.99       0.0  T
   2    -22.4558172  0.113908E-02  0.235E-01    3.94       1.0  T
   3    -22.4569128 -0.109565E-02  0.697E-02    3.99       1.0  T
   4    -22.4569801 -0.672305E-04  0.159E-02    3.98       1.7  T
   5    -22.4569849 -0.478212E-05  0.602E-03    3.98       4.4  T
   6    -22.4569843  0.605041E-06  0.712E-03    3.98       3.8  T
   7    -22.4569851 -0.862204E-06  0.112E-03    3.98      23.8  T
   8    -22.4569851 -0.103437E-07  0.374E-04    3.98      71.4  T
   9    -22.4569851 -0.749587E-10  0.148E-04    3.98     181.1  T
     SCC iter.                  ...        0 min,  0.005 sec
     gradient                   ...        0 min,  0.001 sec
 * total energy  :   -22.1949271 Eh     change       -0.3671812E-05 Eh
   gradient norm :     0.0024316 Eh/α   predicted    -0.4044085E-05 (  10.14%)
   displ. norm   :     0.0267283 α      lambda       -0.3679804E-05
   maximum displ.:     0.0213722 α      in ANC's #4, #2, #3, ...

........................................................................
.............................. CYCLE   35 ..............................
........................................................................

 iter      E             dE          RMSdq      gap      omega  full diag
   1    -22.4568017 -0.224568E+02  0.304E-02    3.98       0.0  T
   2    -22.4566278  0.173854E-03  0.924E-02    3.96       1.0  T
   3    -22.4567932 -0.165386E-03  0.289E-02    3.98       1.0  T
   4    -22.4568050 -0.117842E-04  0.448E-03    3.98       6.0  T
   5    -22.4568054 -0.409934E-06  0.115E-03    3.98      23.3  T
   6    -22.4568054  0.147270E-07  0.126E-03    3.98      21.3  T
   7    -22.4568054 -0.233079E-07  0.292E-04    3.98      91.6  T
   8    -22.4568054 -0.906795E-10  0.130E-04    3.98     206.3  T
     SCC iter.                  ...        0 min,  0.004 sec
     gradient                   ...        0 min,  0.001 sec
 * total energy  :   -22.1949290 Eh     change       -0.1932434E-05 Eh
   gradient norm :     0.0009146 Eh/α   predicted    -0.1840042E-05 (  -4.78%)
   displ. norm   :     0.0076771 α      lambda       -0.5306925E-06
   maximum displ.:     0.0064389 α      in ANC's #1, #6, #3, ...

   *** GEOMETRY OPTIMIZATION CONVERGED AFTER 35 ITERATIONS ***

------------------------------------------------------------------------
 total energy gain   :        -0.4885354 Eh     -306.5606 kcal/mol
 total RMSD          :         0.2871540 a0        0.1520 Å
 total power (kW/mol):       -36.6471281 (step)-5882.3587 (real)
------------------------------------------------------------------------

 ANCopt (total)                0 d,  0 h,  0 min,  0.218 sec
 optimizer setup                ...        0 min,  0.000 sec (  0.059%)
 model hessian                  ...        0 min,  0.005 sec (  2.268%)
 ANC generation                 ...        0 min,  0.001 sec (  0.323%)
 coordinate transformation      ...        0 min,  0.000 sec (  0.086%)
 single point calculation       ...        0 min,  0.198 sec ( 90.980%)
 optimization log               ...        0 min,  0.003 sec (  1.531%)
 hessian update                 ...        0 min,  0.000 sec (  0.172%)
 rational function              ...        0 min,  0.004 sec (  1.989%)

================
 final structure:
================
14
 xtb: 6.6.1 (8d0f1dd)
O           -2.56964726871674        0.64852322485178        1.71793872906574
O           -0.33359163815549       -0.43739801507606        0.82061500689244
C           -0.67044286048799        0.07574729257519       -0.42267668188032
C            0.18179396298215        0.83325501417575        0.52053049718981
C            1.57448202695415        0.45236165548157        0.23734538200852
C            1.45750819979980       -0.60729034613381       -0.56391368579118
C            0.20401676626258       -0.68818427504196       -1.37079369657221
H           -2.88963145077089        0.11695974524265        2.44623446015972
H           -1.70287860519053        0.33791017915428       -0.59150801711029
H           -0.16864151194671        1.67106076813538        1.09878182698261
H            2.42776005611472        0.76142708303588        0.80821294211935
H            2.30097818922065       -1.22318033166885       -0.84843775962278
H            0.34001886035470       -0.23168151304947       -2.35288582576938
H           -0.15173472642021       -1.70940048168255       -1.49939317767212

 Bond Distances (Angstroems)
 ---------------------------
O1-H8=0.9567         O2-C3=1.3866         O2-C4=1.4036         C3-O2=1.3866         C3-C4=1.4798         C3-C7=1.4991         
C3-H9=1.0785         C4-O2=1.4036         C4-C3=1.4798         C4-C5=1.4713         C4-H10=1.0766        C5-C4=1.4713         
C5-C6=1.3336         C5-H11=1.0721        C6-C5=1.3336         C6-C7=1.4929         C6-H12=1.0825        C7-C3=1.4991         
C7-C6=1.4929         C7-H13=1.0915        C7-H14=1.0890        H8-O1=0.9567         H9-C3=1.0785         H10-C4=1.0766        
H11-C5=1.0721        H12-C6=1.0825        H13-C7=1.0915        H14-C7=1.0890        
 C  H  Rav=1.0817 sigma=0.0068  Rmin=1.0721  Rmax=1.0915     6
 C  C  Rav=1.4554 sigma=0.0616  Rmin=1.3336  Rmax=1.4991     5
 O  H  Rav=0.9567 sigma=0.0000  Rmin=0.9567  Rmax=0.9567     1
 O  C  Rav=1.3951 sigma=0.0085  Rmin=1.3866  Rmax=1.4036     2

 selected bond angles (degree)
 --------------------
C4-O2-C3= 64.05                C4-C3-O2= 58.53                C7-C3-O2=103.70                C7-C3-C4=109.15                
H9-C3-O2=117.57                H9-C3-C4=121.78                H9-C3-C7=125.68                C3-C4-O2= 57.41                
C5-C4-O2= 98.88                C5-C4-C3=106.85                H10-C4-O2=118.04               H10-C4-C3=123.59               
H10-C4-C5=127.80               C6-C5-C4=103.79                H11-C5-C4=125.18               H11-C5-C6=128.23               
C7-C6-C5=116.19                H12-C6-C5=122.80               H12-C6-C7=118.77               C6-C7-C3= 96.91                
H13-C7-C3=115.38               H13-C7-C6=111.04               H14-C7-C3=111.22               H14-C7-C6=112.89               
H14-C7-H13=109.07              

 selected dihedral angles (degree)
 ---------------------------------
C7-C3-O2-C4=104.28            H9-C3-O2-C4=247.85            C5-C4-O2-C3=255.62            H10-C4-O2-C3=113.80           
O2-C4-C3-C7=265.33            O2-C4-C3-H9=105.03            C5-C4-C3-O2= 89.87            C5-C4-C3-C7=355.20            
C5-C4-C3-H9=194.90            H10-C4-C3-O2=255.80           H10-C4-C3-C7=161.14           H10-C4-C3-H9=  0.83           
C6-C5-C4-O2= 46.56            C6-C5-C4-C3=348.04            C6-C5-C4-H10=182.89           H11-C5-C4-O2=244.28           
H11-C5-C4-C3=185.77           H11-C5-C4-H10= 20.62          C7-C6-C5-C4= 26.21            C7-C6-C5-H11=187.74           
H12-C6-C5-C4=188.98           H12-C6-C5-H11=350.52          C6-C7-C3-O2=316.28            C6-C7-C3-C4= 17.32            
C6-C7-C3-H9=176.67            H13-C7-C3-O2=199.03           H13-C7-C3-C4=260.08           H13-C7-C3-H9= 59.43           
H14-C7-C3-O2= 74.14           H14-C7-C3-C4=135.18           H14-C7-C3-H9=294.53           C3-C7-C6-C5=332.05            
C3-C7-C6-H12=168.54           H13-C7-C6-C5= 92.66           H13-C7-C6-H12=289.16          H14-C7-C6-C5=215.50           
H14-C7-C6-H12= 51.99          

 CMA Distance (Angstroems)
 ---------------------------
R(CMA):  3.5760
           -------------------------------------------------
          |                Final Singlepoint                |
           -------------------------------------------------

          ...................................................
          :                      SETUP                      :
          :.................................................:
          :  # basis functions                  35          :
          :  # atomic orbitals                  35          :
          :  # shells                           21          :
          :  # electrons                        39          :
          :  max. iterations                   250          :
          :  Hamiltonian                  GFN2-xTB          :
          :  restarted?                      false          :
          :  GBSA solvation                  false          :
          :  PC potential                    false          :
          :  electronic temp.          300.0000000     K    :
          :  accuracy                    1.0000000          :
          :  -> integral cutoff          0.2500000E+02      :
          :  -> integral neglect         0.1000000E-07      :
          :  -> SCF convergence          0.1000000E-05 Eh   :
          :  -> wf. convergence          0.1000000E-03 e    :
          :  Broyden damping             0.4000000          :
          ...................................................

 iter      E             dE          RMSdq      gap      omega  full diag
   1    -22.4568054 -0.224568E+02  0.697E-05    3.98       0.0  T
   2    -22.4568054  0.860819E-09  0.208E-04    3.98     128.7  T
   3    -22.4568054 -0.844917E-09  0.610E-05    3.98     438.3  T

   *** convergence criteria satisfied after 3 iterations ***

         #    Occupation            Energy/Eh            Energy/eV
      -------------------------------------------------------------
         1        2.0000           -0.7366752             -20.0460
       ...           ...                  ...                  ...
        14        2.0000           -0.4876737             -13.2703
        15        2.0000           -0.4792622             -13.0414
        16        2.0000           -0.4587442             -12.4831
        17        2.0000           -0.4386912             -11.9374
        18        1.9992           -0.4066089             -11.0644
        19        1.9928           -0.4044942             -11.0068
        20        1.0080           -0.3952281             -10.7547 (HOMO)
        21                         -0.2489516              -6.7743 (LUMO)
        22                         -0.0924721              -2.5163
        23                          0.0597287               1.6253
        24                          0.0732065               1.9920
        25                          0.0934859               2.5439
       ...                                ...                  ...
        35                          0.6206955              16.8900
      -------------------------------------------------------------
                  HL-Gap            0.1462765 Eh            3.9804 eV
             Fermi-level           -0.3609508 Eh           -9.8220 eV

 SCC (total)                   0 d,  0 h,  0 min,  0.004 sec
 SCC setup                      ...        0 min,  0.000 sec (  2.371%)
 Dispersion                     ...        0 min,  0.000 sec (  1.442%)
 classical contributions        ...        0 min,  0.000 sec (  0.275%)
 integral evaluation            ...        0 min,  0.000 sec (  7.787%)
 iterations                     ...        0 min,  0.002 sec ( 56.405%)
 molecular gradient             ...        0 min,  0.001 sec ( 26.263%)
 printout                       ...        0 min,  0.000 sec (  4.932%)

         :::::::::::::::::::::::::::::::::::::::::::::::::::::
         ::                     SUMMARY                     ::
         :::::::::::::::::::::::::::::::::::::::::::::::::::::
         :: total energy             -22.194929016914 Eh    ::
         :: gradient norm              0.000914257337 Eh/a0 ::
         :: HOMO-LUMO gap              3.980385668318 eV    ::
         ::.................................................::
         :: SCC energy               -22.456805428969 Eh    ::
         :: -> isotropic ES            0.053508148790 Eh    ::
         :: -> anisotropic ES         -0.004975118516 Eh    ::
         :: -> anisotropic XC          0.003950547037 Eh    ::
         :: -> dispersion             -0.008155209006 Eh    ::
         :: repulsion energy           0.261435440865 Eh    ::
         :: add. restraining           0.000431037812 Eh    ::
         :: total charge               0.000000000000 e     ::
         :::::::::::::::::::::::::::::::::::::::::::::::::::::

           -------------------------------------------------
          |                Property Printout                |
           -------------------------------------------------

    * Orbital Energies and Occupations

         #    Occupation            Energy/Eh            Energy/eV
      -------------------------------------------------------------
         1        2.0000           -0.7366752             -20.0460
       ...           ...                  ...                  ...
         8        2.0000           -0.5747379             -15.6394
         9        2.0000           -0.5439704             -14.8022
        10        2.0000           -0.5368208             -14.6076
        11        2.0000           -0.5252917             -14.2939
        12        2.0000           -0.4980853             -13.5536
        13        2.0000           -0.4918419             -13.3837
        14        2.0000           -0.4876737             -13.2703
        15        2.0000           -0.4792622             -13.0414
        16        2.0000           -0.4587442             -12.4831
        17        2.0000           -0.4386912             -11.9374
        18        1.9992           -0.4066089             -11.0644
        19        1.9928           -0.4044942             -11.0068
        20        1.0080           -0.3952281             -10.7547 (HOMO)
        21                         -0.2489516              -6.7743 (LUMO)
        22                         -0.0924721              -2.5163
        23                          0.0597287               1.6253
        24                          0.0732065               1.9920
        25                          0.0934859               2.5439
        26                          0.0974927               2.6529
        27                          0.1388964               3.7796
        28                          0.1760205               4.7898
        29                          0.1964050               5.3445
        30                          0.2119108               5.7664
        31                          0.2233131               6.0767
       ...                                ...                  ...
        35                          0.6206955              16.8900
      -------------------------------------------------------------
                  HL-Gap            0.1462765 Eh            3.9804 eV
             Fermi-level           -0.3609508 Eh           -9.8220 eV

     #   Z          covCN         q      C6AA      α(0)
     1   8 O        0.806    -0.534    24.568     6.644
     2   8 O        1.734    -0.245    18.047     5.736
     3   6 C        3.857     0.103    18.849     6.175
     4   6 C        3.876     0.098    18.925     6.186
     5   6 C        2.946    -0.033    28.828     8.806
     6   6 C        3.121    -0.003    27.924     8.654
     7   6 C        3.837    -0.069    21.784     6.640
     8   1 H        0.806     0.269     0.822     1.424
     9   1 H        0.926     0.083     1.943     2.180
    10   1 H        0.926     0.078     2.003     2.213
    11   1 H        0.926     0.064     2.151     2.293
    12   1 H        0.925     0.048     2.351     2.398
    13   1 H        0.924     0.063     2.161     2.299
    14   1 H        0.925     0.077     2.013     2.219

 Mol. C6AA /au·bohr⁶  :       1823.308890
 Mol. C8AA /au·bohr⁸  :      41347.155010
 Mol. α(0) /au        :         63.866304


Wiberg/Mayer (AO) data.
largest (>0.10) Wiberg bond orders for each atom

 ---------------------------------------------------------------------------
     #   Z sym  total        # sym  WBO       # sym  WBO       # sym  WBO
 ---------------------------------------------------------------------------
     1   8 O    1.318 --     8 H    0.927     2 O    0.199
     2   8 O    2.157 --     3 C    0.941     4 C    0.900     1 O    0.199
     3   6 C    3.895 --     7 C    1.000     9 H    0.956     4 C    0.942
                             2 O    0.941
     4   6 C    3.887 --     5 C    1.030    10 H    0.961     3 C    0.942
                             2 O    0.900
     5   6 C    3.976 --     6 C    1.810     4 C    1.030    11 H    0.967
     6   6 C    3.982 --     5 C    1.810     7 C    1.028    12 H    0.969
     7   6 C    3.995 --     6 C    1.028     3 C    1.000    14 H    0.956
                            13 H    0.949
     8   1 H    0.928 --     1 O    0.927
     9   1 H    0.993 --     3 C    0.956
    10   1 H    0.994 --     4 C    0.961
    11   1 H    0.996 --     5 C    0.967
    12   1 H    0.998 --     6 C    0.969
    13   1 H    0.996 --     7 C    0.949
    14   1 H    0.994 --     7 C    0.956
 ---------------------------------------------------------------------------

Topologies differ in total number of bonds
Writing topology from bond orders to xtbtopo.mol

molecular dipole:
                 x           y           z       tot (Debye)
 q only:        1.271      -0.154      -1.097
   full:        1.095      -0.245      -0.842       3.566
molecular quadrupole (traceless):
                xx          xy          yy          xz          yz          zz
 q only:       -3.131       3.699       1.074       3.414      -0.074       2.056
  q+dip:       -2.091       3.821      -0.225       2.220       1.464       2.316
   full:       -2.328       3.985      -0.330       1.740       0.285       2.658

           -------------------------------------------------
          |                Geometry Summary                 |
           -------------------------------------------------

      molecular mass/u    :       99.1080746
   center of mass at/Å    :       -0.1341485       0.0392516       0.2064174
  moments of inertia/u·Å² :        0.8164647E+02   0.2688617E+03   0.3129629E+03
rotational constants/cm⁻¹ :        0.2064710E+00   0.6270001E-01   0.5386463E-01

 * 13 selected distances

     #   Z          #   Z                                           value/Å
     2   8 O        3   6 C                                       1.3865646
     2   8 O        4   6 C                                       1.4036497
     3   6 C        4   6 C                                       1.4797857
     4   6 C        5   6 C                                       1.4713443
     5   6 C        6   6 C                                       1.3336273
     3   6 C        7   6 C                                       1.4990655 (max)
     6   6 C        7   6 C                                       1.4929301
     3   6 C        9   1 H                                       1.0784977
     4   6 C       10   1 H                                       1.0766143
     5   6 C       11   1 H                                       1.0721450 (min)
     6   6 C       12   1 H                                       1.0824584
     7   6 C       13   1 H                                       1.0915111
     7   6 C       14   1 H                                       1.0890270

 * 3 distinct bonds (by element types)

   Z      Z             #   av. dist./Å        max./Å        min./Å
   1 H    6 C           6     1.0817089     1.0915111     1.0721450
   6 C    6 C           5     1.4553506     1.4990655     1.3336273
   6 C    8 O           2     1.3951072     1.4036497     1.3865646


optimized geometry written to: xtbopt.xyz


           -------------------------------------------------
          | TOTAL ENERGY              -22.194929016914 Eh   |
          | GRADIENT NORM               0.000914257337 Eh/α |
          | HOMO-LUMO GAP               3.980385668318 eV   |
           -------------------------------------------------

------------------------------------------------------------------------
 * finished run on 2025/05/23 at 12:05:46.854     
------------------------------------------------------------------------
 total:
 * wall-time:     0 d,  0 h,  0 min,  0.242 sec
 *  cpu-time:     0 d,  0 h,  0 min,  3.609 sec
 * ratio c/w:    14.912 speedup
 SCF:
 * wall-time:     0 d,  0 h,  0 min,  0.012 sec
 *  cpu-time:     0 d,  0 h,  0 min,  0.193 sec
 * ratio c/w:    15.441 speedup
 ANC optimizer:
 * wall-time:     0 d,  0 h,  0 min,  0.223 sec
 *  cpu-time:     0 d,  0 h,  0 min,  3.325 sec
 * ratio c/w:    14.928 speedup

