      -----------------------------------------------------------      
     |                   =====================                   |     
     |                           x T B                           |     
     |                   =====================                   |     
     |                         S. Grimme                         |     
     |          Mulliken Center for Theoretical Chemistry        |     
     |                    University of Bonn                     |     
      -----------------------------------------------------------      

   * xtb version 6.6.1 (8d0f1dd) compiled by 'conda@1efc2f54142f' on 2023-08-01

   xtb is free software: you can redistribute it and/or modify it under
   the terms of the GNU Lesser General Public License as published by
   the Free Software Foundation, either version 3 of the License, or
   (at your option) any later version.
   
   xtb is distributed in the hope that it will be useful,
   but WITHOUT ANY WARRANTY; without even the implied warranty of
   MERCHANTABILITY or FITNESS FOR A PARTICULAR PURPOSE.  See the
   GNU Lesser General Public License for more details.
   
   Cite this work as:
   * C. Bannwarth, E. Caldeweyher, S. Ehlert, A. Hansen, P. Pracht,
     J. Seibert, S. Spicher, S. Grimme, WIREs Comput. Mol. Sci., 2020, 11,
     e01493. DOI: 10.1002/wcms.1493
   
   for GFN2-xTB:
   * C. Bannwarth, S. Ehlert and S. Grimme., J. Chem. Theory Comput., 2019,
     15, 1652-1671. DOI: 10.1021/acs.jctc.8b01176
   for GFN1-xTB:
   * S. Grimme, C. Bannwarth, P. Shushkov, J. Chem. Theory Comput., 2017,
     13, 1989-2009. DOI: 10.1021/acs.jctc.7b00118
   for GFN0-xTB:
   * P. Pracht, E. Caldeweyher, S. Ehlert, S. Grimme, ChemRxiv, 2019, preprint.
     DOI: 10.26434/chemrxiv.8326202.v1
   for GFN-FF:
   * S. Spicher and S. Grimme, Angew. Chem. Int. Ed., 2020, 59, 15665-15673.
     DOI: 10.1002/anie.202004239
   
   for ALPB and GBSA implicit solvation:
   * S. Ehlert, M. Stahn, S. Spicher, S. Grimme, J. Chem. Theory Comput.,
     2021, 17, 4250-4261. DOI: 10.1021/acs.jctc.1c00471
   
   for DFT-D4:
   * E. Caldeweyher, C. Bannwarth and S. Grimme, J. Chem. Phys., 2017,
     147, 034112. DOI: 10.1063/1.4993215
   * E. Caldeweyher, S. Ehlert, A. Hansen, H. Neugebauer, S. Spicher,
     C. Bannwarth and S. Grimme, J. Chem. Phys., 2019, 150, 154122.
     DOI: 10.1063/1.5090222
   * E. Caldeweyher, J.-M. Mewes, S. Ehlert and S. Grimme, Phys. Chem. Chem. Phys.
     2020, 22, 8499-8512. DOI: 10.1039/D0CP00502A
   
   for sTDA-xTB:
   * S. Grimme and C. Bannwarth, J. Chem. Phys., 2016, 145, 054103.
     DOI: 10.1063/1.4959605
   
   in the mass-spec context:
   * V. Asgeirsson, C. Bauer and S. Grimme, Chem. Sci., 2017, 8, 4879.
     DOI: 10.1039/c7sc00601b
   * J. Koopman and S. Grimme, ACS Omega 2019, 4, 12, 15120-15133.
     DOI: 10.1021/acsomega.9b02011
   
   for metadynamics refer to:
   * S. Grimme, J. Chem. Theory Comput., 2019, 155, 2847-2862
     DOI: 10.1021/acs.jctc.9b00143
   
   for SPH calculations refer to:
   * S. Spicher and S. Grimme, J. Chem. Theory Comput., 2021, 17, 1701-1714
     DOI: 10.1021/acs.jctc.0c01306
   
   with help from (in alphabetical order)
   P. Atkinson, C. Bannwarth, F. Bohle, G. Brandenburg, E. Caldeweyher
   M. Checinski, S. Dohm, S. Ehlert, S. Ehrlich, I. Gerasimov, C. Hölzer
   A. Katbashev, J. Koopman, C. Lavigne, S. Lehtola, F. März, M. Müller,
   F. Musil, H. Neugebauer, J. Pisarek, C. Plett, P. Pracht, F. Pultar,
   J. Seibert, P. Shushkov, S. Spicher, M. Stahn, M. Steiner, T. Strunk,
   J. Stückrath, T. Rose, and J. Unsleber
   
 * started run on 2025/05/23 at 12:05:45.235     

           -------------------------------------------------
          |                Calculation Setup                |
           -------------------------------------------------

          program call               : /gpfs/fs1/home/copan/code/autode-practice/.pixi/envs/default/bin/xtb path_opt3_xtb.xyz --chrg 0 --uhf 1 --opt --input xcontrol_path_opt3_xtb
          hostname                   : csed-0029
          coordinate file            : path_opt3_xtb.xyz
          omp threads                :                     8

   ID    Z sym.   atoms
    1    8 O      1, 2
    2    6 C      3-7
    3    1 H      8-14
constraining bond 2 6 to    2.4474000 Å, actual value:    2.6294341 Å
constraining bond 1 2 to    1.7830000 Å, actual value:    1.7163074 Å

molecular fragmentation (1/2 indicates fragments):
12222221222222
# atoms in fragment 1/2:     2    12
 fragment masses (1/2) :       17.01       82.10
CMA distance (Bohr)    :   5.550
constraining FC (au)   :  2.0000

           -------------------------------------------------
          |                 G F N 2 - x T B                 |
           -------------------------------------------------

        Reference                      10.1021/acs.jctc.8b01176
      * Hamiltonian:
        H0-scaling (s, p, d)           1.850000    2.230000    2.230000
        zeta-weighting                 0.500000
      * Dispersion:
        s8                             2.700000
        a1                             0.520000
        a2                             5.000000
        s9                             5.000000
      * Repulsion:
        kExp                           1.500000    1.000000
        rExp                           1.000000
      * Coulomb:
        alpha                          2.000000
        third order                    shell-resolved
        anisotropic                    true
        a3                             3.000000
        a5                             4.000000
        cn-shift                       1.200000
        cn-exp                         4.000000
        max-rad                        5.000000


          ...................................................
          :                      SETUP                      :
          :.................................................:
          :  # basis functions                  35          :
          :  # atomic orbitals                  35          :
          :  # shells                           21          :
          :  # electrons                        39          :
          :  max. iterations                   250          :
          :  Hamiltonian                  GFN2-xTB          :
          :  restarted?                      false          :
          :  GBSA solvation                  false          :
          :  PC potential                    false          :
          :  electronic temp.          300.0000000     K    :
          :  accuracy                    1.0000000          :
          :  -> integral cutoff          0.2500000E+02      :
          :  -> integral neglect         0.1000000E-07      :
          :  -> SCF convergence          0.1000000E-05 Eh   :
          :  -> wf. convergence          0.1000000E-03 e    :
          :  Broyden damping             0.4000000          :
          ...................................................

 iter      E             dE          RMSdq      gap      omega  full diag
   1    -22.4277483 -0.224277E+02  0.428E+00    2.05       0.0  T
   2    -22.4571977 -0.294494E-01  0.217E+00    2.65       1.0  T
   3    -22.4520603  0.513745E-02  0.158E+00    2.09       1.0  T
   4    -22.4677800 -0.157197E-01  0.260E-01    2.31       1.0  T
   5    -22.4681626 -0.382603E-03  0.115E-01    2.28       1.0  T
   6    -22.4682754 -0.112832E-03  0.564E-02    2.28       1.0  T
   7    -22.4682873 -0.119294E-04  0.330E-02    2.29       1.0  T
   8    -22.4682937 -0.638871E-05  0.116E-02    2.28       2.3  T
   9    -22.4682943 -0.621967E-06  0.520E-03    2.28       5.1  T
  10    -22.4682944 -0.112307E-06  0.262E-03    2.28      10.2  T
  11    -22.4682945 -0.277326E-07  0.905E-04    2.28      29.5  T
  12    -22.4682945 -0.458947E-08  0.486E-04    2.28      55.0  T

   *** convergence criteria satisfied after 12 iterations ***

         #    Occupation            Energy/Eh            Energy/eV
      -------------------------------------------------------------
         1        2.0000           -0.7010217             -19.0758
       ...           ...                  ...                  ...
        14        2.0000           -0.4777203             -12.9994
        15        2.0000           -0.4700471             -12.7906
        16        2.0000           -0.4576327             -12.4528
        17        2.0000           -0.4424173             -12.0388
        18        2.0000           -0.4400526             -11.9744
        19        2.0000           -0.4033400             -10.9754
        20        1.0000           -0.3462943              -9.4231 (HOMO)
        21                         -0.2623944              -7.1401 (LUMO)
        22                         -0.1853260              -5.0430
        23                          0.0264595               0.7200
        24                          0.0838189               2.2808
        25                          0.1021187               2.7788
       ...                                ...                  ...
        35                          0.6046443              16.4532
      -------------------------------------------------------------
                  HL-Gap            0.0838999 Eh            2.2830 eV
             Fermi-level           -0.3395807 Eh           -9.2405 eV

 SCC (total)                   0 d,  0 h,  0 min,  0.010 sec
 SCC setup                      ...        0 min,  0.000 sec (  2.313%)
 Dispersion                     ...        0 min,  0.000 sec (  1.176%)
 classical contributions        ...        0 min,  0.000 sec (  1.641%)
 integral evaluation            ...        0 min,  0.000 sec (  4.312%)
 iterations                     ...        0 min,  0.008 sec ( 78.929%)
 molecular gradient             ...        0 min,  0.001 sec (  9.265%)
 printout                       ...        0 min,  0.000 sec (  2.125%)

         :::::::::::::::::::::::::::::::::::::::::::::::::::::
         ::                     SUMMARY                     ::
         :::::::::::::::::::::::::::::::::::::::::::::::::::::
         :: total energy             -21.945639720395 Eh    ::
         :: gradient norm              2.163584964894 Eh/a0 ::
         :: HOMO-LUMO gap              2.283032604331 eV    ::
         ::.................................................::
         :: SCC energy               -22.468294471185 Eh    ::
         :: -> isotropic ES            0.044515289094 Eh    ::
         :: -> anisotropic ES         -0.008051240100 Eh    ::
         :: -> anisotropic XC          0.005724861031 Eh    ::
         :: -> dispersion             -0.008826787712 Eh    ::
         :: repulsion energy           0.254202755944 Eh    ::
         :: add. restraining           0.268432114161 Eh    ::
         :: total charge              -0.000000000000 e     ::
         :::::::::::::::::::::::::::::::::::::::::::::::::::::

      ----------------------------------------------------------- 
     |                   =====================                   |
     |                        A N C O P T                        |
     |                   =====================                   |
     |               Approximate Normal Coordinate               |
     |                Rational Function Optimizer                |
      ----------------------------------------------------------- 

          ...................................................
          :                      SETUP                      :
          :.................................................:
          :   optimization level            normal          :
          :   max. optcycles                   200          :
          :   ANC micro-cycles                  20          :
          :   degrees of freedom                36          :
          :.................................................:
          :   RF solver                   davidson          :
          :   write xtbopt.log                true          :
          :   linear?                        false          :
          :   energy convergence         0.5000000E-05 Eh   :
          :   grad. convergence          0.1000000E-02 Eh/α :
          :   maxmium RF displ.          1.0000000          :
          :   Hlow (freq-cutoff)         0.1000000E-01      :
          :   Hmax (freq-cutoff)         5.0000000          :
          :   S6 in model hess.         20.0000000          :
          ...................................................

generating ANC from model Hessian ...
Using Lindh-Hessian (1995)
 Shifting diagonal of input Hessian by   0.18708807207024752     
 Lowest  eigenvalues of input Hessian
    0.010000    0.114485    0.000000    0.000000    0.000000    0.000000
    0.000000    0.000000    0.196014    0.205967    0.210239    0.220378
    0.234802    0.244658    0.248037    0.253599    0.267028    0.283517
 Highest eigenvalues
    1.585345    1.811763    1.922532    2.101557    6.817068   10.683262


........................................................................
.............................. CYCLE    1 ..............................
........................................................................

 iter      E             dE          RMSdq      gap      omega  full diag
   1    -22.4682945 -0.224683E+02  0.118E-04    2.28       0.0  T
   2    -22.4682945 -0.551061E-10  0.553E-05    2.28     483.5  T
   3    -22.4682945 -0.935785E-11  0.419E-05    2.28     638.5  T
     SCC iter.                  ...        0 min,  0.002 sec
     gradient                   ...        0 min,  0.001 sec
 * total energy  :   -21.9456397 Eh     change       -0.1014101E-08 Eh
   gradient norm :     2.1635868 Eh/α   predicted     0.0000000E+00 (-100.00%)
   displ. norm   :     0.3811022 α      lambda       -0.8138636E+00
   maximum displ.:     0.3422669 α      in ANC's #35, #36, #28, ...

........................................................................
.............................. CYCLE    2 ..............................
........................................................................

 iter      E             dE          RMSdq      gap      omega  full diag
   1    -22.4226755 -0.224227E+02  0.108E+00    2.15       0.0  T
   2    -22.4127155  0.995996E-02  0.144E+00    2.17       1.0  T
   3    -22.4462785 -0.335630E-01  0.338E-01    2.10       1.0  T
   4    -22.4462319  0.465817E-04  0.131E-01    2.09       1.0  T
   5    -22.4463293 -0.973998E-04  0.512E-02    2.09       1.0  T
   6    -22.4463622 -0.328186E-04  0.205E-02    2.09       1.3  T
   7    -22.4463664 -0.425533E-05  0.791E-03    2.09       3.4  T
   8    -22.4463665 -0.537596E-07  0.312E-03    2.09       8.6  T
   9    -22.4463665 -0.639055E-07  0.113E-03    2.09      23.7  T
  10    -22.4463665 -0.236601E-08  0.434E-04    2.09      61.6  T
  11    -22.4463665 -0.496694E-09  0.133E-04    2.09     200.6  T
     SCC iter.                  ...        0 min,  0.006 sec
     gradient                   ...        0 min,  0.001 sec
 * total energy  :   -22.0794374 Eh     change       -0.1337977E+00 Eh
   gradient norm :     1.5486752 Eh/α   predicted    -0.4660341E+00 ( 248.31%)
   displ. norm   :     0.1892873 α      lambda       -0.2387155E+00
   maximum displ.:     0.1478572 α      in ANC's #35, #1, #2, ...

........................................................................
.............................. CYCLE    3 ..............................
........................................................................

 iter      E             dE          RMSdq      gap      omega  full diag
   1    -22.4510828 -0.224511E+02  0.513E-01    2.32       0.0  T
   2    -22.4523656 -0.128281E-02  0.515E-01    2.18       1.0  T
   3    -22.4560187 -0.365312E-02  0.160E-01    2.23       1.0  T
   4    -22.4560176  0.118519E-05  0.573E-02    2.22       1.0  T
   5    -22.4560441 -0.265685E-04  0.140E-02    2.23       1.9  T
   6    -22.4560446 -0.471983E-06  0.740E-03    2.24       3.6  T
   7    -22.4560449 -0.329357E-06  0.346E-03    2.24       7.7  T
   8    -22.4560450 -0.562603E-07  0.196E-03    2.24      13.6  T
   9    -22.4560450 -0.280676E-07  0.539E-04    2.24      49.6  T
  10    -22.4560450 -0.109782E-08  0.240E-04    2.24     111.3  T
     SCC iter.                  ...        0 min,  0.005 sec
     gradient                   ...        0 min,  0.001 sec
 * total energy  :   -22.1971453 Eh     change       -0.1177079E+00 Eh
   gradient norm :     0.0926728 Eh/α   predicted    -0.1236342E+00 (   5.03%)
   displ. norm   :     0.3302798 α      lambda       -0.4515473E-02
   maximum displ.:     0.3247943 α      in ANC's #1, #36, #2, ...

........................................................................
.............................. CYCLE    4 ..............................
........................................................................

 iter      E             dE          RMSdq      gap      omega  full diag
   1    -22.4502812 -0.224503E+02  0.360E-01    2.07       0.0  T
   2    -22.4502959 -0.146437E-04  0.233E-01    2.06       1.0  T
   3    -22.4500821  0.213725E-03  0.176E-01    2.07       1.0  T
   4    -22.4504127 -0.330551E-03  0.139E-02    2.06       1.9  T
   5    -22.4504132 -0.536483E-06  0.807E-03    2.06       3.3  T
   6    -22.4504131  0.113661E-06  0.476E-03    2.06       5.6  T
   7    -22.4504135 -0.346950E-06  0.111E-03    2.06      24.1  T
   8    -22.4504135 -0.372535E-08  0.492E-04    2.06      54.3  T
   9    -22.4504135 -0.182286E-08  0.162E-04    2.06     164.6  T
     SCC iter.                  ...        0 min,  0.005 sec
     gradient                   ...        0 min,  0.001 sec
 * total energy  :   -22.1971485 Eh     change       -0.3226828E-05 Eh
   gradient norm :     0.1234041 Eh/α   predicted    -0.2504024E-02 (*******%)
   displ. norm   :     0.3069352 α      lambda       -0.6130283E-02
   maximum displ.:     0.3037238 α      in ANC's #1, #2, #9, ...

........................................................................
.............................. CYCLE    5 ..............................
........................................................................

 iter      E             dE          RMSdq      gap      omega  full diag
   1    -22.4574925 -0.224575E+02  0.301E-01    2.25       0.0  T
   2    -22.4575085 -0.159379E-04  0.196E-01    2.26       1.0  T
   3    -22.4573507  0.157817E-03  0.138E-01    2.24       1.0  T
   4    -22.4575741 -0.223415E-03  0.116E-02    2.25       2.3  T
   5    -22.4575746 -0.539370E-06  0.708E-03    2.25       3.8  T
   6    -22.4575748 -0.223290E-06  0.291E-03    2.25       9.2  T
   7    -22.4575749 -0.700761E-07  0.626E-04    2.25      42.7  T
   8    -22.4575749 -0.214741E-08  0.315E-04    2.25      85.0  T
     SCC iter.                  ...        0 min,  0.004 sec
     gradient                   ...        0 min,  0.001 sec
 * total energy  :   -22.1993379 Eh     change       -0.2189413E-02 Eh
   gradient norm :     0.0289110 Eh/α   predicted    -0.3353915E-02 (  53.19%)
   displ. norm   :     0.0420824 α      lambda       -0.5016343E-03
   maximum displ.:     0.0190462 α      in ANC's #6, #9, #1, ...

........................................................................
.............................. CYCLE    6 ..............................
........................................................................

 iter      E             dE          RMSdq      gap      omega  full diag
   1    -22.4567024 -0.224567E+02  0.503E-02    2.28       0.0  T
   2    -22.4567051 -0.278332E-05  0.383E-02    2.29       1.0  T
   3    -22.4567129 -0.773121E-05  0.206E-02    2.28       1.3  T
   4    -22.4567143 -0.143240E-05  0.272E-03    2.28       9.8  T
   5    -22.4567144 -0.630345E-07  0.137E-03    2.28      19.5  T
   6    -22.4567144 -0.110618E-07  0.768E-04    2.28      34.8  T
   7    -22.4567144 -0.322917E-08  0.174E-04    2.28     153.5  T
     SCC iter.                  ...        0 min,  0.004 sec
     gradient                   ...        0 min,  0.001 sec
 * total energy  :   -22.1997284 Eh     change       -0.3904661E-03 Eh
   gradient norm :     0.0096616 Eh/α   predicted    -0.2512601E-03 ( -35.65%)
   displ. norm   :     0.1016973 α      lambda       -0.6986910E-03
   maximum displ.:     0.0484442 α      in ANC's #6, #9, #19, ...

........................................................................
.............................. CYCLE    7 ..............................
........................................................................

 iter      E             dE          RMSdq      gap      omega  full diag
   1    -22.4555128 -0.224555E+02  0.132E-01    2.36       0.0  T
   2    -22.4555369 -0.241056E-04  0.100E-01    2.37       1.0  T
   3    -22.4555964 -0.594744E-04  0.529E-02    2.36       1.0  T
   4    -22.4556044 -0.799184E-05  0.618E-03    2.36       4.3  T
   5    -22.4556047 -0.351925E-06  0.266E-03    2.36      10.0  T
   6    -22.4556048 -0.396718E-07  0.156E-03    2.36      17.1  T
   7    -22.4556048 -0.168906E-07  0.383E-04    2.36      69.7  T
   8    -22.4556048 -0.342396E-09  0.173E-04    2.36     154.6  T
     SCC iter.                  ...        0 min,  0.004 sec
     gradient                   ...        0 min,  0.001 sec
 * total energy  :   -22.2001801 Eh     change       -0.4516540E-03 Eh
   gradient norm :     0.0157331 Eh/α   predicted    -0.3529582E-03 ( -21.85%)
   displ. norm   :     0.0722260 α      lambda       -0.2932447E-03
   maximum displ.:     0.0396501 α      in ANC's #6, #2, #19, ...

........................................................................
.............................. CYCLE    8 ..............................
........................................................................

 iter      E             dE          RMSdq      gap      omega  full diag
   1    -22.4551036 -0.224551E+02  0.948E-02    2.42       0.0  T
   2    -22.4551206 -0.169407E-04  0.741E-02    2.43       1.0  T
   3    -22.4551546 -0.339729E-04  0.377E-02    2.42       1.0  T
   4    -22.4551571 -0.256881E-05  0.555E-03    2.42       4.8  T
   5    -22.4551575 -0.345546E-06  0.141E-03    2.42      18.9  T
   6    -22.4551575 -0.475649E-08  0.982E-04    2.42      27.2  T
   7    -22.4551575 -0.600518E-08  0.312E-04    2.42      85.7  T
     SCC iter.                  ...        0 min,  0.004 sec
     gradient                   ...        0 min,  0.001 sec
 * total energy  :   -22.2004064 Eh     change       -0.2263209E-03 Eh
   gradient norm :     0.0134385 Eh/α   predicted    -0.1473865E-03 ( -34.88%)
   displ. norm   :     0.1141896 α      lambda       -0.4009218E-03
   maximum displ.:     0.0656001 α      in ANC's #6, #2, #19, ...

........................................................................
.............................. CYCLE    9 ..............................
........................................................................

 iter      E             dE          RMSdq      gap      omega  full diag
   1    -22.4550064 -0.224550E+02  0.147E-01    2.53       0.0  T
   2    -22.4550668 -0.603426E-04  0.121E-01    2.53       1.0  T
   3    -22.4551693 -0.102535E-03  0.594E-02    2.53       1.0  T
   4    -22.4551708 -0.145544E-05  0.107E-02    2.53       2.5  T
   5    -22.4551721 -0.136207E-05  0.344E-03    2.53       7.8  T
   6    -22.4551723 -0.126714E-06  0.169E-03    2.53      15.9  T
   7    -22.4551723 -0.823366E-08  0.918E-04    2.53      29.1  T
   8    -22.4551723 -0.642984E-08  0.349E-04    2.53      76.5  T
     SCC iter.                  ...        0 min,  0.004 sec
     gradient                   ...        0 min,  0.001 sec
 * total energy  :   -22.2006913 Eh     change       -0.2848831E-03 Eh
   gradient norm :     0.0082945 Eh/α   predicted    -0.2030753E-03 ( -28.72%)
   displ. norm   :     0.1259306 α      lambda       -0.3645111E-03
   maximum displ.:     0.0711490 α      in ANC's #6, #2, #19, ...

........................................................................
.............................. CYCLE   10 ..............................
........................................................................

 iter      E             dE          RMSdq      gap      omega  full diag
   1    -22.4556635 -0.224557E+02  0.151E-01    2.64       0.0  T
   2    -22.4557542 -0.906620E-04  0.126E-01    2.63       1.0  T
   3    -22.4558544 -0.100257E-03  0.623E-02    2.64       1.0  T
   4    -22.4558534  0.996374E-06  0.172E-02    2.63       1.6  T
   5    -22.4558564 -0.292040E-05  0.393E-03    2.64       6.8  T
   6    -22.4558565 -0.154338E-06  0.206E-03    2.63      13.0  T
   7    -22.4558565 -0.163342E-08  0.129E-03    2.63      20.6  T
   8    -22.4558565 -0.167138E-07  0.466E-04    2.63      57.3  T
   9    -22.4558565 -0.907121E-09  0.167E-04    2.63     159.7  T
     SCC iter.                  ...        0 min,  0.005 sec
     gradient                   ...        0 min,  0.001 sec
 * total energy  :   -22.2009963 Eh     change       -0.3050130E-03 Eh
   gradient norm :     0.0140960 Eh/α   predicted    -0.1851477E-03 ( -39.30%)
   displ. norm   :     0.3898669 α      lambda       -0.1152925E-02
   maximum displ.:     0.2166912 α      in ANC's #2, #6, #19, ...

........................................................................
.............................. CYCLE   11 ..............................
........................................................................

 iter      E             dE          RMSdq      gap      omega  full diag
   1    -22.4560137 -0.224560E+02  0.446E-01    2.88       0.0  T
   2    -22.4569548 -0.941156E-03  0.343E-01    2.86       1.0  T
   3    -22.4573666 -0.411800E-03  0.181E-01    2.89       1.0  T
   4    -22.4573615  0.509682E-05  0.677E-02    2.87       1.0  T
   5    -22.4573977 -0.361683E-04  0.217E-02    2.88       1.2  T
   6    -22.4574024 -0.467970E-05  0.836E-03    2.88       3.2  T
   7    -22.4574027 -0.261576E-06  0.532E-03    2.87       5.0  T
   8    -22.4574028 -0.191488E-06  0.163E-03    2.88      16.4  T
   9    -22.4574029 -0.981678E-08  0.485E-04    2.88      55.1  T
  10    -22.4574029 -0.861814E-09  0.193E-04    2.88     138.8  T
     SCC iter.                  ...        0 min,  0.005 sec
     gradient                   ...        0 min,  0.001 sec
 * total energy  :   -22.2019883 Eh     change       -0.9919858E-03 Eh
   gradient norm :     0.0355567 Eh/α   predicted    -0.6640853E-03 ( -33.05%)
   displ. norm   :     0.5630728 α      lambda       -0.1949098E-02
   maximum displ.:     0.2965420 α      in ANC's #2, #6, #19, ...

........................................................................
.............................. CYCLE   12 ..............................
........................................................................

 iter      E             dE          RMSdq      gap      omega  full diag
   1    -22.4540215 -0.224540E+02  0.628E-01    2.93       0.0  T
   2    -22.4557272 -0.170576E-02  0.434E-01    2.99       1.0  T
   3    -22.4560391 -0.311912E-03  0.250E-01    3.00       1.0  T
   4    -22.4560190  0.201407E-04  0.128E-01    3.00       1.0  T
   5    -22.4561779 -0.158862E-03  0.314E-02    2.99       1.0  T
   6    -22.4561854 -0.759400E-05  0.135E-02    3.00       2.0  T
   7    -22.4561857 -0.263244E-06  0.715E-03    2.99       3.7  T
   8    -22.4561860 -0.293944E-06  0.238E-03    2.99      11.2  T
   9    -22.4561860 -0.187464E-07  0.848E-04    2.99      31.5  T
  10    -22.4561860 -0.187745E-08  0.354E-04    2.99      75.5  T
     SCC iter.                  ...        0 min,  0.005 sec
     gradient                   ...        0 min,  0.001 sec
 * total energy  :   -22.2004654 Eh     change        0.1522831E-02 Eh
   gradient norm :     0.0985330 Eh/α   predicted    -0.1283539E-02 (-184.29%)
   displ. norm   :     0.3354960 α      lambda       -0.7663458E-02
   maximum displ.:     0.1875863 α      in ANC's #6, #2, #19, ...

........................................................................
.............................. CYCLE   13 ..............................
........................................................................

 iter      E             dE          RMSdq      gap      omega  full diag
   1    -22.4601254 -0.224601E+02  0.412E-01    2.94       0.0  T
   2    -22.4607659 -0.640524E-03  0.285E-01    2.93       1.0  T
   3    -22.4609237 -0.157788E-03  0.158E-01    2.92       1.0  T
   4    -22.4609383 -0.146326E-04  0.684E-02    2.93       1.0  T
   5    -22.4609824 -0.440986E-04  0.209E-02    2.93       1.3  T
   6    -22.4609862 -0.379867E-05  0.923E-03    2.92       2.9  T
   7    -22.4609864 -0.219721E-06  0.582E-03    2.93       4.6  T
   8    -22.4609866 -0.203377E-06  0.162E-03    2.92      16.5  T
   9    -22.4609866 -0.877334E-08  0.555E-04    2.92      48.2  T
  10    -22.4609866 -0.814708E-09  0.227E-04    2.92     117.5  T
     SCC iter.                  ...        0 min,  0.005 sec
     gradient                   ...        0 min,  0.001 sec
 * total energy  :   -22.2038991 Eh     change       -0.3433670E-02 Eh
   gradient norm :     0.0371358 Eh/α   predicted    -0.4263023E-02 (  24.15%)
   displ. norm   :     0.1345689 α      lambda       -0.1279395E-02
   maximum displ.:     0.0956486 α      in ANC's #1, #9, #4, ...

........................................................................
.............................. CYCLE   14 ..............................
........................................................................

 iter      E             dE          RMSdq      gap      omega  full diag
   1    -22.4626610 -0.224627E+02  0.141E-01    2.90       0.0  T
   2    -22.4626764 -0.154117E-04  0.854E-02    2.90       1.0  T
   3    -22.4626539  0.225464E-04  0.563E-02    2.90       1.0  T
   4    -22.4626830 -0.290796E-04  0.111E-02    2.90       2.4  T
   5    -22.4626839 -0.931231E-06  0.345E-03    2.90       7.7  T
   6    -22.4626839 -0.524016E-07  0.205E-03    2.90      13.1  T
   7    -22.4626839 -0.902374E-08  0.523E-04    2.90      51.1  T
   8    -22.4626839 -0.264468E-08  0.164E-04    2.90     163.4  T
     SCC iter.                  ...        0 min,  0.004 sec
     gradient                   ...        0 min,  0.001 sec
 * total energy  :   -22.2049782 Eh     change       -0.1079143E-02 Eh
   gradient norm :     0.0305027 Eh/α   predicted    -0.6512833E-03 ( -39.65%)
   displ. norm   :     0.3325084 α      lambda       -0.3165470E-02
   maximum displ.:     0.1809134 α      in ANC's #1, #4, #9, ...

........................................................................
.............................. CYCLE   15 ..............................
........................................................................

 iter      E             dE          RMSdq      gap      omega  full diag
   1    -22.4648802 -0.224649E+02  0.368E-01    2.87       0.0  T
   2    -22.4651082 -0.228035E-03  0.232E-01    2.88       1.0  T
   3    -22.4650823  0.259031E-04  0.154E-01    2.88       1.0  T
   4    -22.4652144 -0.132073E-03  0.442E-02    2.89       1.0  T
   5    -22.4652317 -0.172740E-04  0.123E-02    2.88       2.2  T
   6    -22.4652328 -0.113932E-05  0.574E-03    2.88       4.7  T
   7    -22.4652329 -0.351705E-07  0.222E-03    2.88      12.0  T
   8    -22.4652329 -0.313908E-07  0.756E-04    2.88      35.4  T
   9    -22.4652329 -0.176603E-08  0.313E-04    2.88      85.3  T
     SCC iter.                  ...        0 min,  0.005 sec
     gradient                   ...        0 min,  0.001 sec
 * total energy  :   -22.2067905 Eh     change       -0.1812251E-02 Eh
   gradient norm :     0.0570614 Eh/α   predicted    -0.1757731E-02 (  -3.01%)
   displ. norm   :     0.0765756 α      lambda       -0.7195166E-03
   maximum displ.:     0.0374043 α      in ANC's #1, #4, #7, ...

........................................................................
.............................. CYCLE   16 ..............................
........................................................................

 iter      E             dE          RMSdq      gap      omega  full diag
   1    -22.4671257 -0.224671E+02  0.981E-02    2.90       0.0  T
   2    -22.4671375 -0.118060E-04  0.594E-02    2.90       1.0  T
   3    -22.4671335  0.402261E-05  0.396E-02    2.90       1.0  T
   4    -22.4671437 -0.101834E-04  0.106E-02    2.90       2.5  T
   5    -22.4671448 -0.112733E-05  0.276E-03    2.90       9.7  T
   6    -22.4671448 -0.341970E-07  0.148E-03    2.90      18.1  T
   7    -22.4671448 -0.250074E-08  0.587E-04    2.90      45.5  T
   8    -22.4671448 -0.230978E-08  0.211E-04    2.90     126.9  T
     SCC iter.                  ...        0 min,  0.004 sec
     gradient                   ...        0 min,  0.001 sec
 * total energy  :   -22.2068789 Eh     change       -0.8835353E-04 Eh
   gradient norm :     0.0204648 Eh/α   predicted    -0.3618674E-03 ( 309.57%)
   displ. norm   :     0.0914268 α      lambda       -0.6226031E-03
   maximum displ.:     0.0736266 α      in ANC's #1, #2, #4, ...

........................................................................
.............................. CYCLE   17 ..............................
........................................................................

 iter      E             dE          RMSdq      gap      omega  full diag
   1    -22.4653665 -0.224654E+02  0.908E-02    2.87       0.0  T
   2    -22.4653792 -0.126891E-04  0.590E-02    2.87       1.0  T
   3    -22.4653751  0.413409E-05  0.351E-02    2.88       1.0  T
   4    -22.4653819 -0.679186E-05  0.122E-02    2.88       2.2  T
   5    -22.4653833 -0.140257E-05  0.344E-03    2.87       7.8  T
   6    -22.4653834 -0.771794E-07  0.173E-03    2.87      15.5  T
   7    -22.4653834 -0.514313E-08  0.423E-04    2.87      63.2  T
   8    -22.4653834 -0.710465E-09  0.193E-04    2.87     138.6  T
     SCC iter.                  ...        0 min,  0.004 sec
     gradient                   ...        0 min,  0.001 sec
 * total energy  :   -22.2072958 Eh     change       -0.4169142E-03 Eh
   gradient norm :     0.0259594 Eh/α   predicted    -0.3139036E-03 ( -24.71%)
   displ. norm   :     0.0637652 α      lambda       -0.3595219E-03
   maximum displ.:     0.0420095 α      in ANC's #1, #2, #6, ...

........................................................................
.............................. CYCLE   18 ..............................
........................................................................

 iter      E             dE          RMSdq      gap      omega  full diag
   1    -22.4647603 -0.224648E+02  0.642E-02    2.85       0.0  T
   2    -22.4647630 -0.261930E-05  0.382E-02    2.85       1.0  T
   3    -22.4647613  0.161898E-05  0.172E-02    2.85       1.6  T
   4    -22.4647631 -0.171527E-05  0.620E-03    2.85       4.3  T
   5    -22.4647635 -0.435668E-06  0.154E-03    2.85      17.4  T
   6    -22.4647635 -0.765566E-08  0.780E-04    2.85      34.3  T
   7    -22.4647635 -0.882803E-09  0.140E-04    2.85     190.4  T
     SCC iter.                  ...        0 min,  0.004 sec
     gradient                   ...        0 min,  0.001 sec
 * total energy  :   -22.2075407 Eh     change       -0.2449660E-03 Eh
   gradient norm :     0.0430269 Eh/α   predicted    -0.1804901E-03 ( -26.32%)
   displ. norm   :     0.0739203 α      lambda       -0.3708957E-03
   maximum displ.:     0.0400091 α      in ANC's #2, #1, #9, ...

........................................................................
.............................. CYCLE   19 ..............................
........................................................................

 iter      E             dE          RMSdq      gap      omega  full diag
   1    -22.4648658 -0.224649E+02  0.672E-02    2.83       0.0  T
   2    -22.4648684 -0.258320E-05  0.392E-02    2.83       1.0  T
   3    -22.4648680  0.346825E-06  0.102E-02    2.83       2.6  T
   4    -22.4648681 -0.114247E-06  0.572E-03    2.83       4.7  T
   5    -22.4648685 -0.392556E-06  0.124E-03    2.83      21.6  T
   6    -22.4648685  0.493934E-10  0.417E-04    2.83      64.1  T
   7    -22.4648685 -0.123103E-08  0.922E-05    2.83     289.8  T
     SCC iter.                  ...        0 min,  0.004 sec
     gradient                   ...        0 min,  0.001 sec
 * total energy  :   -22.2078122 Eh     change       -0.2714509E-03 Eh
   gradient norm :     0.0315600 Eh/α   predicted    -0.1864605E-03 ( -31.31%)
   displ. norm   :     0.1132127 α      lambda       -0.3893805E-03
   maximum displ.:     0.0719401 α      in ANC's #2, #1, #7, ...

........................................................................
.............................. CYCLE   20 ..............................
........................................................................

 iter      E             dE          RMSdq      gap      omega  full diag
   1    -22.4659976 -0.224660E+02  0.972E-02    2.81       0.0  T
   2    -22.4660119 -0.143510E-04  0.572E-02    2.81       1.0  T
   3    -22.4660095  0.240025E-05  0.287E-02    2.81       1.0  T
   4    -22.4660128 -0.321434E-05  0.120E-02    2.81       2.2  T
   5    -22.4660142 -0.147029E-05  0.319E-03    2.81       8.4  T
   6    -22.4660143 -0.874905E-07  0.138E-03    2.81      19.3  T
   7    -22.4660143 -0.159216E-08  0.214E-04    2.81     125.0  T
   8    -22.4660143 -0.264443E-09  0.973E-05    2.81     274.7  T
     SCC iter.                  ...        0 min,  0.004 sec
     gradient                   ...        0 min,  0.001 sec
 * total energy  :   -22.2080803 Eh     change       -0.2681371E-03 Eh
   gradient norm :     0.0289992 Eh/α   predicted    -0.1971846E-03 ( -26.46%)
   displ. norm   :     0.0863174 α      lambda       -0.3108759E-03
   maximum displ.:     0.0465609 α      in ANC's #2, #1, #3, ...
 * RMSD in coord.:     0.4274844 α      energy gain  -0.2624406E+00 Eh

generating ANC from model Hessian ...
Using Lindh-Hessian (1995)
 Shifting diagonal of input Hessian by    6.0641468236835331E-003
 Lowest  eigenvalues of input Hessian
    0.000000    0.000000    0.000000    0.000000    0.000000    0.000000
    0.010000    0.015267    0.025821    0.026616    0.033485    0.040431
    0.048305    0.064095    0.068864    0.080369    0.086651    0.104112
 Highest eigenvalues
    1.419078    1.610080    1.771136    1.886598    5.754587   11.516335


........................................................................
.............................. CYCLE   21 ..............................
........................................................................

 iter      E             dE          RMSdq      gap      omega  full diag
   1    -22.4669662 -0.224670E+02  0.761E-02    2.78       0.0  T
   2    -22.4669705 -0.429998E-05  0.448E-02    2.79       1.0  T
   3    -22.4669698  0.678258E-06  0.136E-02    2.79       2.0  T
   4    -22.4669704 -0.617969E-06  0.589E-03    2.79       4.5  T
   5    -22.4669708 -0.394441E-06  0.187E-03    2.79      14.3  T
   6    -22.4669708 -0.184174E-07  0.959E-04    2.79      27.9  T
   7    -22.4669708 -0.114967E-08  0.172E-04    2.79     155.2  T
     SCC iter.                  ...        0 min,  0.004 sec
     gradient                   ...        0 min,  0.001 sec
 * total energy  :   -22.2082914 Eh     change       -0.2110734E-03 Eh
   gradient norm :     0.0098439 Eh/α   predicted     0.0000000E+00 (-100.00%)
   displ. norm   :     0.1199967 α      lambda       -0.4915476E-03
   maximum displ.:     0.0725436 α      in ANC's #3, #1, #6, ...

........................................................................
.............................. CYCLE   22 ..............................
........................................................................

 iter      E             dE          RMSdq      gap      omega  full diag
   1    -22.4675186 -0.224675E+02  0.100E-01    2.72       0.0  T
   2    -22.4675265 -0.790807E-05  0.608E-02    2.72       1.0  T
   3    -22.4675193  0.725222E-05  0.325E-02    2.72       1.0  T
   4    -22.4675274 -0.814416E-05  0.100E-02    2.72       2.7  T
   5    -22.4675284 -0.101146E-05  0.194E-03    2.72      13.7  T
   6    -22.4675284 -0.268476E-08  0.105E-03    2.72      25.4  T
   7    -22.4675284 -0.458283E-08  0.133E-04    2.72     201.4  T
   8    -22.4675284 -0.423483E-10  0.630E-05    2.72     424.1  T
     SCC iter.                  ...        0 min,  0.004 sec
     gradient                   ...        0 min,  0.001 sec
 * total energy  :   -22.2086825 Eh     change       -0.3910999E-03 Eh
   gradient norm :     0.0066418 Eh/α   predicted    -0.2493134E-03 ( -36.25%)
   displ. norm   :     0.2588621 α      lambda       -0.6224001E-03
   maximum displ.:     0.1814598 α      in ANC's #3, #1, #6, ...

........................................................................
.............................. CYCLE   23 ..............................
........................................................................

 iter      E             dE          RMSdq      gap      omega  full diag
   1    -22.4682881 -0.224683E+02  0.188E-01    2.61       0.0  T
   2    -22.4683224 -0.342315E-04  0.116E-01    2.60       1.0  T
   3    -22.4682989  0.234504E-04  0.654E-02    2.61       1.0  T
   4    -22.4683268 -0.278740E-04  0.214E-02    2.61       1.2  T
   5    -22.4683316 -0.484425E-05  0.431E-03    2.60       6.2  T
   6    -22.4683317 -0.104308E-06  0.231E-03    2.61      11.6  T
   7    -22.4683317 -0.698169E-08  0.336E-04    2.61      79.5  T
   8    -22.4683317 -0.598643E-09  0.142E-04    2.61     187.9  T
     SCC iter.                  ...        0 min,  0.004 sec
     gradient                   ...        0 min,  0.001 sec
 * total energy  :   -22.2089120 Eh     change       -0.2295502E-03 Eh
   gradient norm :     0.0552259 Eh/α   predicted    -0.3320604E-03 (  44.66%)
   displ. norm   :     0.0458685 α      lambda       -0.4999905E-03
   maximum displ.:     0.0392011 α      in ANC's #1, #3, #6, ...

........................................................................
.............................. CYCLE   24 ..............................
........................................................................

 iter      E             dE          RMSdq      gap      omega  full diag
   1    -22.4685982 -0.224686E+02  0.348E-02    2.59       0.0  T
   2    -22.4686001 -0.181371E-05  0.214E-02    2.60       1.2  T
   3    -22.4685997  0.372222E-06  0.109E-02    2.60       2.5  T
   4    -22.4686003 -0.587296E-06  0.382E-03    2.60       7.0  T
   5    -22.4686004 -0.149982E-06  0.110E-03    2.60      24.2  T
   6    -22.4686004 -0.900255E-08  0.505E-04    2.60      52.9  T
   7    -22.4686004 -0.472806E-09  0.176E-04    2.60     151.7  T
     SCC iter.                  ...        0 min,  0.004 sec
     gradient                   ...        0 min,  0.001 sec
 * total energy  :   -22.2091042 Eh     change       -0.1921553E-03 Eh
   gradient norm :     0.0266984 Eh/α   predicted    -0.2505235E-03 (  30.38%)
   displ. norm   :     0.0930099 α      lambda       -0.2000520E-03
   maximum displ.:     0.0634461 α      in ANC's #1, #3, #6, ...

........................................................................
.............................. CYCLE   25 ..............................
........................................................................

 iter      E             dE          RMSdq      gap      omega  full diag
   1    -22.4689729 -0.224690E+02  0.613E-02    2.58       0.0  T
   2    -22.4689803 -0.744558E-05  0.373E-02    2.57       1.0  T
   3    -22.4689798  0.485971E-06  0.198E-02    2.57       1.4  T
   4    -22.4689805 -0.694086E-06  0.879E-03    2.57       3.0  T
   5    -22.4689814 -0.853001E-06  0.195E-03    2.57      13.7  T
   6    -22.4689814 -0.353077E-07  0.818E-04    2.57      32.7  T
   7    -22.4689814 -0.616780E-09  0.174E-04    2.57     153.8  T
     SCC iter.                  ...        0 min,  0.004 sec
     gradient                   ...        0 min,  0.001 sec
 * total energy  :   -22.2092554 Eh     change       -0.1511884E-03 Eh
   gradient norm :     0.0055927 Eh/α   predicted    -0.1008911E-03 ( -33.27%)
   displ. norm   :     0.2471226 α      lambda       -0.2825084E-03
   maximum displ.:     0.1692963 α      in ANC's #3, #1, #6, ...

........................................................................
.............................. CYCLE   26 ..............................
........................................................................

 iter      E             dE          RMSdq      gap      omega  full diag
   1    -22.4695278 -0.224695E+02  0.157E-01    2.51       0.0  T
   2    -22.4695699 -0.420193E-04  0.969E-02    2.48       1.0  T
   3    -22.4695659  0.398815E-05  0.488E-02    2.50       1.0  T
   4    -22.4695713 -0.542175E-05  0.202E-02    2.49       1.3  T
   5    -22.4695760 -0.467700E-05  0.475E-03    2.49       5.6  T
   6    -22.4695762 -0.194187E-06  0.202E-03    2.49      13.3  T
   7    -22.4695762 -0.345366E-08  0.414E-04    2.49      64.5  T
   8    -22.4695762 -0.652832E-09  0.153E-04    2.49     174.8  T
     SCC iter.                  ...        0 min,  0.004 sec
     gradient                   ...        0 min,  0.001 sec
 * total energy  :   -22.2092292 Eh     change        0.2622049E-04 Eh
   gradient norm :     0.0620173 Eh/α   predicted    -0.1498812E-03 (-671.62%)
   displ. norm   :     0.1010221 α      lambda       -0.4682136E-03
   maximum displ.:     0.0770625 α      in ANC's #3, #1, #6, ...

........................................................................
.............................. CYCLE   27 ..............................
........................................................................

 iter      E             dE          RMSdq      gap      omega  full diag
   1    -22.4694265 -0.224694E+02  0.730E-02    2.51       0.0  T
   2    -22.4694319 -0.539295E-05  0.452E-02    2.53       1.0  T
   3    -22.4694302  0.168103E-05  0.206E-02    2.52       1.3  T
   4    -22.4694326 -0.235511E-05  0.674E-03    2.52       4.0  T
   5    -22.4694331 -0.518008E-06  0.197E-03    2.53      13.5  T
   6    -22.4694331 -0.239904E-07  0.895E-04    2.52      29.9  T
   7    -22.4694331 -0.948823E-09  0.238E-04    2.52     112.5  T
     SCC iter.                  ...        0 min,  0.004 sec
     gradient                   ...        0 min,  0.001 sec
 * total energy  :   -22.2094070 Eh     change       -0.1778615E-03 Eh
   gradient norm :     0.0112982 Eh/α   predicted    -0.2364961E-03 (  32.97%)
   displ. norm   :     0.0636375 α      lambda       -0.5753834E-04
   maximum displ.:     0.0503188 α      in ANC's #1, #3, #6, ...

........................................................................
.............................. CYCLE   28 ..............................
........................................................................

 iter      E             dE          RMSdq      gap      omega  full diag
   1    -22.4695394 -0.224695E+02  0.379E-02    2.50       0.0  T
   2    -22.4695425 -0.305732E-05  0.226E-02    2.50       1.2  T
   3    -22.4695423  0.158429E-06  0.121E-02    2.50       2.2  T
   4    -22.4695425 -0.232668E-06  0.538E-03    2.50       5.0  T
   5    -22.4695428 -0.320839E-06  0.120E-03    2.50      22.3  T
   6    -22.4695429 -0.138640E-07  0.451E-04    2.50      59.3  T
   7    -22.4695429 -0.138993E-09  0.810E-05    2.50     330.0  T
     SCC iter.                  ...        0 min,  0.004 sec
     gradient                   ...        0 min,  0.001 sec
 * total energy  :   -22.2094580 Eh     change       -0.5094789E-04 Eh
   gradient norm :     0.0082883 Eh/α   predicted    -0.2888745E-04 ( -43.30%)
   displ. norm   :     0.2263529 α      lambda       -0.1636401E-03
   maximum displ.:     0.1739094 α      in ANC's #1, #3, #6, ...

........................................................................
.............................. CYCLE   29 ..............................
........................................................................

 iter      E             dE          RMSdq      gap      omega  full diag
   1    -22.4698158 -0.224698E+02  0.138E-01    2.44       0.0  T
   2    -22.4698583 -0.425891E-04  0.836E-02    2.42       1.0  T
   3    -22.4698574  0.974526E-06  0.444E-02    2.43       1.0  T
   4    -22.4698600 -0.260193E-05  0.189E-02    2.42       1.4  T
   5    -22.4698640 -0.397511E-05  0.461E-03    2.42       5.8  T
   6    -22.4698642 -0.198759E-06  0.173E-03    2.42      15.4  T
   7    -22.4698642 -0.198925E-08  0.340E-04    2.42      78.7  T
   8    -22.4698642 -0.344933E-09  0.135E-04    2.42     198.2  T
     SCC iter.                  ...        0 min,  0.004 sec
     gradient                   ...        0 min,  0.001 sec
 * total energy  :   -22.2095081 Eh     change       -0.5013677E-04 Eh
   gradient norm :     0.0284778 Eh/α   predicted    -0.8601396E-04 (  71.56%)
   displ. norm   :     0.0632364 α      lambda       -0.9381554E-04
   maximum displ.:     0.0450389 α      in ANC's #1, #3, #6, ...

........................................................................
.............................. CYCLE   30 ..............................
........................................................................

 iter      E             dE          RMSdq      gap      omega  full diag
   1    -22.4697979 -0.224698E+02  0.385E-02    2.43       0.0  T
   2    -22.4698008 -0.284575E-05  0.235E-02    2.44       1.1  T
   3    -22.4698008 -0.281049E-08  0.116E-02    2.44       2.3  T
   4    -22.4698011 -0.321129E-06  0.316E-03    2.44       8.4  T
   5    -22.4698012 -0.997952E-07  0.129E-03    2.44      20.7  T
   6    -22.4698012 -0.155664E-07  0.502E-04    2.44      53.3  T
   7    -22.4698012 -0.305288E-09  0.133E-04    2.44     200.4  T
     SCC iter.                  ...        0 min,  0.004 sec
     gradient                   ...        0 min,  0.001 sec
 * total energy  :   -22.2095457 Eh     change       -0.3757337E-04 Eh
   gradient norm :     0.0032599 Eh/α   predicted    -0.4709417E-04 (  25.34%)
   displ. norm   :     0.0383589 α      lambda       -0.1606583E-04
   maximum displ.:     0.0260915 α      in ANC's #1, #3, #6, ...

........................................................................
.............................. CYCLE   31 ..............................
........................................................................

 iter      E             dE          RMSdq      gap      omega  full diag
   1    -22.4699187 -0.224699E+02  0.265E-02    2.43       0.0  T
   2    -22.4699202 -0.154386E-05  0.160E-02    2.42       1.7  T
   3    -22.4699201  0.643973E-07  0.877E-03    2.42       3.0  T
   4    -22.4699203 -0.128640E-06  0.389E-03    2.42       6.9  T
   5    -22.4699204 -0.163144E-06  0.884E-04    2.42      30.2  T
   6    -22.4699204 -0.695868E-08  0.348E-04    2.42      76.7  T
     SCC iter.                  ...        0 min,  0.003 sec
     gradient                   ...        0 min,  0.001 sec
 * total energy  :   -22.2095594 Eh     change       -0.1371580E-04 Eh
   gradient norm :     0.0036573 Eh/α   predicted    -0.8045920E-05 ( -41.34%)
   displ. norm   :     0.0917509 α      lambda       -0.3477026E-04
   maximum displ.:     0.0617067 α      in ANC's #3, #1, #6, ...

........................................................................
.............................. CYCLE   32 ..............................
........................................................................

 iter      E             dE          RMSdq      gap      omega  full diag
   1    -22.4702117 -0.224702E+02  0.672E-02    2.39       0.0  T
   2    -22.4702204 -0.864194E-05  0.409E-02    2.38       1.0  T
   3    -22.4702197  0.662920E-06  0.219E-02    2.38       1.2  T
   4    -22.4702207 -0.101221E-05  0.938E-03    2.38       2.8  T
   5    -22.4702217 -0.969860E-06  0.213E-03    2.38      12.6  T
   6    -22.4702217 -0.382052E-07  0.877E-04    2.38      30.5  T
   7    -22.4702217 -0.512973E-09  0.160E-04    2.38     167.6  T
     SCC iter.                  ...        0 min,  0.004 sec
     gradient                   ...        0 min,  0.001 sec
 * total energy  :   -22.2095778 Eh     change       -0.1837101E-04 Eh
   gradient norm :     0.0102706 Eh/α   predicted    -0.1753226E-04 (  -4.57%)
   displ. norm   :     0.0111936 α      lambda       -0.1204669E-04
   maximum displ.:     0.0064900 α      in ANC's #3, #1, #4, ...

........................................................................
.............................. CYCLE   33 ..............................
........................................................................

 iter      E             dE          RMSdq      gap      omega  full diag
   1    -22.4702389 -0.224702E+02  0.100E-02    2.37       0.0  T
   2    -22.4702390 -0.652793E-07  0.624E-03    2.37       4.3  T
   3    -22.4702389  0.889661E-07  0.346E-03    2.37       7.7  T
   4    -22.4702390 -0.105518E-06  0.835E-04    2.37      32.0  T
   5    -22.4702390 -0.645177E-08  0.166E-04    2.37     160.8  T
     SCC iter.                  ...        0 min,  0.003 sec
     gradient                   ...        0 min,  0.001 sec
 * total energy  :   -22.2095870 Eh     change       -0.9255278E-05 Eh
   gradient norm :     0.0048251 Eh/α   predicted    -0.6024963E-05 ( -34.90%)
   displ. norm   :     0.0404595 α      lambda       -0.1572068E-04
   maximum displ.:     0.0337151 α      in ANC's #3, #4, #5, ...

........................................................................
.............................. CYCLE   34 ..............................
........................................................................

 iter      E             dE          RMSdq      gap      omega  full diag
   1    -22.4702457 -0.224702E+02  0.372E-02    2.35       0.0  T
   2    -22.4702469 -0.120002E-05  0.231E-02    2.35       1.2  T
   3    -22.4702461  0.725231E-06  0.114E-02    2.35       2.4  T
   4    -22.4702469 -0.811143E-06  0.408E-03    2.35       6.6  T
   5    -22.4702471 -0.187010E-06  0.752E-04    2.35      35.5  T
   6    -22.4702471 -0.355578E-08  0.386E-04    2.35      69.3  T
     SCC iter.                  ...        0 min,  0.003 sec
     gradient                   ...        0 min,  0.001 sec
 * total energy  :   -22.2095975 Eh     change       -0.1049527E-04 Eh
   gradient norm :     0.0022582 Eh/α   predicted    -0.7871693E-05 ( -25.00%)
   displ. norm   :     0.0238004 α      lambda       -0.5869008E-05
   maximum displ.:     0.0210627 α      in ANC's #3, #4, #7, ...

........................................................................
.............................. CYCLE   35 ..............................
........................................................................

 iter      E             dE          RMSdq      gap      omega  full diag
   1    -22.4702274 -0.224702E+02  0.222E-02    2.34       0.0  T
   2    -22.4702277 -0.324513E-06  0.137E-02    2.34       1.9  T
   3    -22.4702275  0.240804E-06  0.618E-03    2.34       4.3  T
   4    -22.4702278 -0.263346E-06  0.217E-03    2.34      12.3  T
   5    -22.4702278 -0.545418E-07  0.384E-04    2.34      69.6  T
   6    -22.4702278 -0.700751E-09  0.209E-04    2.34     128.0  T
     SCC iter.                  ...        0 min,  0.003 sec
     gradient                   ...        0 min,  0.001 sec
 * total energy  :   -22.2096016 Eh     change       -0.4042441E-05 Eh
   gradient norm :     0.0010579 Eh/α   predicted    -0.2936383E-05 ( -27.36%)
   displ. norm   :     0.0248181 α      lambda       -0.2522954E-05
   maximum displ.:     0.0216760 α      in ANC's #3, #1, #2, ...

........................................................................
.............................. CYCLE   36 ..............................
........................................................................

 iter      E             dE          RMSdq      gap      omega  full diag
   1    -22.4702454 -0.224702E+02  0.230E-02    2.33       0.0  T
   2    -22.4702457 -0.291778E-06  0.142E-02    2.33       1.9  T
   3    -22.4702454  0.256718E-06  0.611E-03    2.33       4.4  T
   4    -22.4702457 -0.285454E-06  0.204E-03    2.33      13.1  T
   5    -22.4702457 -0.482225E-07  0.410E-04    2.33      65.2  T
   6    -22.4702457 -0.651525E-09  0.222E-04    2.33     120.3  T
     SCC iter.                  ...        0 min,  0.003 sec
     gradient                   ...        0 min,  0.001 sec
 * total energy  :   -22.2096036 Eh     change       -0.2062976E-05 Eh
   gradient norm :     0.0008009 Eh/α   predicted    -0.1260382E-05 ( -38.90%)
   displ. norm   :     0.0094128 α      lambda       -0.8581943E-06
   maximum displ.:     0.0076417 α      in ANC's #1, #4, #5, ...

   *** GEOMETRY OPTIMIZATION CONVERGED AFTER 36 ITERATIONS ***

------------------------------------------------------------------------
 total energy gain   :        -0.2639639 Eh     -165.6399 kcal/mol
 total RMSD          :         0.6569116 a0        0.3476 Å
 total power (kW/mol):       -19.2510318 (step)-3185.7738 (real)
------------------------------------------------------------------------

 ANCopt (total)                0 d,  0 h,  0 min,  0.218 sec
 optimizer setup                ...        0 min,  0.000 sec (  0.057%)
 model hessian                  ...        0 min,  0.006 sec (  2.937%)
 ANC generation                 ...        0 min,  0.001 sec (  0.333%)
 coordinate transformation      ...        0 min,  0.000 sec (  0.093%)
 single point calculation       ...        0 min,  0.196 sec ( 90.035%)
 optimization log               ...        0 min,  0.003 sec (  1.599%)
 hessian update                 ...        0 min,  0.000 sec (  0.185%)
 rational function              ...        0 min,  0.004 sec (  2.053%)

================
 final structure:
================
14
 xtb: 6.6.1 (8d0f1dd)
O           -2.32526401329621       -0.18738880907656        1.43659651345977
O           -0.66016392742577        0.07027663532370        0.83766934381422
C           -0.69278051709000        0.38596126664239       -0.51102101501938
C            0.22520385524231        1.12468708108563        0.38139727366588
C            1.50519338579783        0.41982719875253        0.33217040322224
C            1.31993252594443       -0.67598973669899       -0.40153745468910
C            0.07850585485959       -0.68561310585915       -1.23198325590068
H           -2.14187329183373       -0.50410166755084        2.32184551467990
H           -1.61286729759225        0.81212078378204       -0.88403867160126
H            0.04558786718650        2.11431316759908        0.76603980995367
H            2.34808685515035        0.65632133783412        0.95241079999440
H            2.06517086517725       -1.44403099567971       -0.53712862338817
H            0.29194763340094       -0.44702419823646       -2.27543636740164
H           -0.44668979552115       -1.63926895791779       -1.18696427078978

 Bond Distances (Angstroems)
 ---------------------------
O1-H8=0.9579         O2-C3=1.3855         O2-C4=1.4505         C3-O2=1.3855         C3-C4=1.4781         C3-C7=1.5043         
C3-H9=1.0804         C4-O2=1.4505         C4-C3=1.4781         C4-C5=1.4621         C4-H10=1.0768        C5-C4=1.4621         
C5-C6=1.3317         C5-H11=1.0729        C6-C5=1.3317         C6-C7=1.4936         C6-H12=1.0787        C7-C3=1.5043         
C7-C6=1.4936         C7-H13=1.0915        C7-H14=1.0896        H8-O1=0.9579         H9-C3=1.0804         H10-C4=1.0768        
H11-C5=1.0729        H12-C6=1.0787        H13-C7=1.0915        H14-C7=1.0896        
 C  H  Rav=1.0817 sigma=0.0067  Rmin=1.0729  Rmax=1.0915     6
 C  C  Rav=1.4540 sigma=0.0628  Rmin=1.3317  Rmax=1.5043     5
 O  H  Rav=0.9579 sigma=0.0000  Rmin=0.9579  Rmax=0.9579     1
 O  C  Rav=1.4180 sigma=0.0325  Rmin=1.3855  Rmax=1.4505     2

 selected bond angles (degree)
 --------------------
C4-O2-C3= 62.78                C4-C3-O2= 60.76                C7-C3-O2=106.99                C7-C3-C4=109.08                
H9-C3-O2=116.49                H9-C3-C4=122.70                H9-C3-C7=123.51                C3-C4-O2= 56.46                
C5-C4-O2=101.22                C5-C4-C3=106.41                H10-C4-O2=116.99               H10-C4-C3=124.85               
H10-C4-C5=126.95               C6-C5-C4=107.07                H11-C5-C4=124.20               H11-C5-C6=127.53               
C7-C6-C5=115.29                H12-C6-C5=123.99               H12-C6-C7=119.98               C6-C7-C3= 98.92                
H13-C7-C3=113.75               H13-C7-C6=111.57               H14-C7-C3=110.89               H14-C7-C6=112.54               
H14-C7-H13=108.97              

 selected dihedral angles (degree)
 ---------------------------------
C7-C3-O2-C4=102.75            H9-C3-O2-C4=245.62            C5-C4-O2-C3=257.64            H10-C4-O2-C3=115.57           
O2-C4-C3-C7=260.76            O2-C4-C3-H9=104.36            C5-C4-C3-O2= 92.76            C5-C4-C3-C7=353.52            
C5-C4-C3-H9=197.12            H10-C4-C3-O2=258.34           H10-C4-C3-C7=159.10           H10-C4-C3-H9=  2.70           
C6-C5-C4-O2= 52.81            C6-C5-C4-C3=354.73            C6-C5-C4-H10=189.54           H11-C5-C4-O2=244.55           
H11-C5-C4-C3=186.47           H11-C5-C4-H10= 21.29          C7-C6-C5-C4= 15.91            C7-C6-C5-H11=183.65           
H12-C6-C5-C4=186.04           H12-C6-C5-H11=353.78          C6-C7-C3-O2=309.79            C6-C7-C3-C4= 14.02            
C6-C7-C3-H9=170.18            H13-C7-C3-O2=191.39           H13-C7-C3-C4=255.62           H13-C7-C3-H9= 51.78           
H14-C7-C3-O2= 68.16           H14-C7-C3-C4=132.39           H14-C7-C3-H9=288.55           C3-C7-C6-C5=341.12            
C3-C7-C6-H12=170.57           H13-C7-C6-C5=101.15           H13-C7-C6-H12=290.59          H14-C7-C6-C5=224.00           
H14-C7-C6-H12= 53.45          

 CMA Distance (Angstroems)
 ---------------------------
R(CMA):  3.0334
           -------------------------------------------------
          |                Final Singlepoint                |
           -------------------------------------------------

          ...................................................
          :                      SETUP                      :
          :.................................................:
          :  # basis functions                  35          :
          :  # atomic orbitals                  35          :
          :  # shells                           21          :
          :  # electrons                        39          :
          :  max. iterations                   250          :
          :  Hamiltonian                  GFN2-xTB          :
          :  restarted?                      false          :
          :  GBSA solvation                  false          :
          :  PC potential                    false          :
          :  electronic temp.          300.0000000     K    :
          :  accuracy                    1.0000000          :
          :  -> integral cutoff          0.2500000E+02      :
          :  -> integral neglect         0.1000000E-07      :
          :  -> SCF convergence          0.1000000E-05 Eh   :
          :  -> wf. convergence          0.1000000E-03 e    :
          :  Broyden damping             0.4000000          :
          ...................................................

 iter      E             dE          RMSdq      gap      omega  full diag
   1    -22.4702457 -0.224702E+02  0.376E-05    2.33       0.0  T
   2    -22.4702457 -0.663292E-11  0.205E-05    2.33    1306.8  T
   3    -22.4702457 -0.831335E-12  0.123E-05    2.33    2173.8  T

   *** convergence criteria satisfied after 3 iterations ***

         #    Occupation            Energy/Eh            Energy/eV
      -------------------------------------------------------------
         1        2.0000           -0.7397366             -20.1293
       ...           ...                  ...                  ...
        14        2.0000           -0.4825758             -13.1316
        15        2.0000           -0.4781405             -13.0109
        16        2.0000           -0.4625499             -12.5866
        17        2.0000           -0.4465522             -12.1513
        18        2.0000           -0.4219296             -11.4813
        19        2.0000           -0.3931357             -10.6978
        20        1.0000           -0.3202209              -8.7137 (HOMO)
        21                         -0.2345900              -6.3835 (LUMO)
        22                         -0.0972496              -2.6463
        23                          0.0523064               1.4233
        24                          0.0746964               2.0326
        25                          0.0857446               2.3332
       ...                                ...                  ...
        35                          0.6300099              17.1434
      -------------------------------------------------------------
                  HL-Gap            0.0856309 Eh            2.3301 eV
             Fermi-level           -0.3170419 Eh           -8.6271 eV

 SCC (total)                   0 d,  0 h,  0 min,  0.003 sec
 SCC setup                      ...        0 min,  0.000 sec (  2.843%)
 Dispersion                     ...        0 min,  0.000 sec (  1.939%)
 classical contributions        ...        0 min,  0.000 sec (  0.302%)
 integral evaluation            ...        0 min,  0.000 sec (  8.635%)
 iterations                     ...        0 min,  0.002 sec ( 57.450%)
 molecular gradient             ...        0 min,  0.001 sec ( 23.727%)
 printout                       ...        0 min,  0.000 sec (  3.993%)

         :::::::::::::::::::::::::::::::::::::::::::::::::::::
         ::                     SUMMARY                     ::
         :::::::::::::::::::::::::::::::::::::::::::::::::::::
         :: total energy             -22.209603627945 Eh    ::
         :: gradient norm              0.000801241737 Eh/a0 ::
         :: HOMO-LUMO gap              2.330134271242 eV    ::
         ::.................................................::
         :: SCC energy               -22.470245741331 Eh    ::
         :: -> isotropic ES            0.051852573674 Eh    ::
         :: -> anisotropic ES         -0.005696582029 Eh    ::
         :: -> anisotropic XC          0.004553140939 Eh    ::
         :: -> dispersion             -0.008477164212 Eh    ::
         :: repulsion energy           0.260265386275 Eh    ::
         :: add. restraining           0.000358412159 Eh    ::
         :: total charge              -0.000000000000 e     ::
         :::::::::::::::::::::::::::::::::::::::::::::::::::::

           -------------------------------------------------
          |                Property Printout                |
           -------------------------------------------------

    * Orbital Energies and Occupations

         #    Occupation            Energy/Eh            Energy/eV
      -------------------------------------------------------------
         1        2.0000           -0.7397366             -20.1293
       ...           ...                  ...                  ...
         8        2.0000           -0.5759721             -15.6730
         9        2.0000           -0.5475820             -14.9005
        10        2.0000           -0.5415999             -14.7377
        11        2.0000           -0.5213754             -14.1873
        12        2.0000           -0.4979458             -13.5498
        13        2.0000           -0.4885567             -13.2943
        14        2.0000           -0.4825758             -13.1316
        15        2.0000           -0.4781405             -13.0109
        16        2.0000           -0.4625499             -12.5866
        17        2.0000           -0.4465522             -12.1513
        18        2.0000           -0.4219296             -11.4813
        19        2.0000           -0.3931357             -10.6978
        20        1.0000           -0.3202209              -8.7137 (HOMO)
        21                         -0.2345900              -6.3835 (LUMO)
        22                         -0.0972496              -2.6463
        23                          0.0523064               1.4233
        24                          0.0746964               2.0326
        25                          0.0857446               2.3332
        26                          0.0919423               2.5019
        27                          0.1413191               3.8455
        28                          0.1717941               4.6748
        29                          0.2054993               5.5919
        30                          0.2111980               5.7470
        31                          0.2178665               5.9284
       ...                                ...                  ...
        35                          0.6300099              17.1434
      -------------------------------------------------------------
                  HL-Gap            0.0856309 Eh            2.3301 eV
             Fermi-level           -0.3170419 Eh           -8.6271 eV

     #   Z          covCN         q      C6AA      α(0)
     1   8 O        1.048    -0.532    24.388     6.626
     2   8 O        1.950    -0.169    16.822     5.539
     3   6 C        3.830     0.112    18.731     6.158
     4   6 C        3.831     0.078    19.254     6.243
     5   6 C        2.942    -0.045    29.124     8.851
     6   6 C        3.045    -0.024    28.547     8.763
     7   6 C        3.836    -0.070    21.808     6.644
     8   1 H        0.806     0.267     0.830     1.431
     9   1 H        0.926     0.072     2.067     2.248
    10   1 H        0.926     0.061     2.185     2.312
    11   1 H        0.926     0.057     2.229     2.335
    12   1 H        0.926     0.048     2.349     2.397
    13   1 H        0.924     0.062     2.180     2.309
    14   1 H        0.925     0.083     1.952     2.185

 Mol. C6AA /au·bohr⁶  :       1829.219393
 Mol. C8AA /au·bohr⁸  :      41463.575081
 Mol. α(0) /au        :         64.040830


Wiberg/Mayer (AO) data.
largest (>0.10) Wiberg bond orders for each atom

 ---------------------------------------------------------------------------
     #   Z sym  total        # sym  WBO       # sym  WBO       # sym  WBO
 ---------------------------------------------------------------------------
     1   8 O    1.488 --     8 H    0.926     2 O    0.389
     2   8 O    2.268 --     3 C    0.944     4 C    0.820     1 O    0.389
     3   6 C    3.900 --     7 C    0.999     9 H    0.959     2 O    0.944
                             4 C    0.943
     4   6 C    3.882 --     5 C    1.051    10 H    0.967     3 C    0.943
                             2 O    0.820
     5   6 C    3.981 --     6 C    1.833     4 C    1.051    11 H    0.967
     6   6 C    3.982 --     5 C    1.833     7 C    1.029    12 H    0.970
     7   6 C    3.995 --     6 C    1.029     3 C    0.999    14 H    0.952
                            13 H    0.952
     8   1 H    0.929 --     1 O    0.926
     9   1 H    0.995 --     3 C    0.959
    10   1 H    0.996 --     4 C    0.967
    11   1 H    0.997 --     5 C    0.967
    12   1 H    0.998 --     6 C    0.970
    13   1 H    0.996 --     7 C    0.952
    14   1 H    0.993 --     7 C    0.952
 ---------------------------------------------------------------------------

Topologies differ in total number of bonds
Writing topology from bond orders to xtbtopo.mol

molecular dipole:
                 x           y           z       tot (Debye)
 q only:        1.348       0.232      -0.866
   full:        1.274       0.252      -0.612       3.649
molecular quadrupole (traceless):
                xx          xy          yy          xz          yz          zz
 q only:       -6.606      -0.208       3.438       4.117       0.561       3.168
  q+dip:       -8.284      -0.988       4.463       4.766       1.754       3.820
   full:       -7.962      -0.423       3.607       3.968       0.821       4.355

           -------------------------------------------------
          |                Geometry Summary                 |
           -------------------------------------------------

      molecular mass/u    :       99.1080746
   center of mass at/Å    :       -0.1811410       0.0454413       0.1851502
  moments of inertia/u·Å² :        0.9297312E+02   0.2216107E+03   0.2566680E+03
rotational constants/cm⁻¹ :        0.1813173E+00   0.7606867E-01   0.6567873E-01

 * 13 selected distances

     #   Z          #   Z                                           value/Å
     2   8 O        3   6 C                                       1.3855276
     2   8 O        4   6 C                                       1.4504627
     3   6 C        4   6 C                                       1.4781143
     4   6 C        5   6 C                                       1.4620617
     5   6 C        6   6 C                                       1.3317146
     3   6 C        7   6 C                                       1.5043076 (max)
     6   6 C        7   6 C                                       1.4936109
     3   6 C        9   1 H                                       1.0804231
     4   6 C       10   1 H                                       1.0768342
     5   6 C       11   1 H                                       1.0728920 (min)
     6   6 C       12   1 H                                       1.0787274
     7   6 C       13   1 H                                       1.0914562
     7   6 C       14   1 H                                       1.0896407

 * 3 distinct bonds (by element types)

   Z      Z             #   av. dist./Å        max./Å        min./Å
   1 H    6 C           6     1.0816623     1.0914562     1.0728920
   6 C    6 C           5     1.4539618     1.5043076     1.3317146
   6 C    8 O           2     1.4179951     1.4504627     1.3855276


optimized geometry written to: xtbopt.xyz


           -------------------------------------------------
          | TOTAL ENERGY              -22.209603627945 Eh   |
          | GRADIENT NORM               0.000801241737 Eh/α |
          | HOMO-LUMO GAP               2.330134271242 eV   |
           -------------------------------------------------

------------------------------------------------------------------------
 * finished run on 2025/05/23 at 12:05:45.474     
------------------------------------------------------------------------
 total:
 * wall-time:     0 d,  0 h,  0 min,  0.239 sec
 *  cpu-time:     0 d,  0 h,  0 min,  3.567 sec
 * ratio c/w:    14.929 speedup
 SCF:
 * wall-time:     0 d,  0 h,  0 min,  0.010 sec
 *  cpu-time:     0 d,  0 h,  0 min,  0.149 sec
 * ratio c/w:    15.326 speedup
 ANC optimizer:
 * wall-time:     0 d,  0 h,  0 min,  0.222 sec
 *  cpu-time:     0 d,  0 h,  0 min,  3.323 sec
 * ratio c/w:    14.970 speedup

