      -----------------------------------------------------------      
     |                   =====================                   |     
     |                           x T B                           |     
     |                   =====================                   |     
     |                         S. Grimme                         |     
     |          Mulliken Center for Theoretical Chemistry        |     
     |                    University of Bonn                     |     
      -----------------------------------------------------------      

   * xtb version 6.6.1 (8d0f1dd) compiled by 'conda@1efc2f54142f' on 2023-08-01

   xtb is free software: you can redistribute it and/or modify it under
   the terms of the GNU Lesser General Public License as published by
   the Free Software Foundation, either version 3 of the License, or
   (at your option) any later version.
   
   xtb is distributed in the hope that it will be useful,
   but WITHOUT ANY WARRANTY; without even the implied warranty of
   MERCHANTABILITY or FITNESS FOR A PARTICULAR PURPOSE.  See the
   GNU Lesser General Public License for more details.
   
   Cite this work as:
   * C. Bannwarth, E. Caldeweyher, S. Ehlert, A. Hansen, P. Pracht,
     J. Seibert, S. Spicher, S. Grimme, WIREs Comput. Mol. Sci., 2020, 11,
     e01493. DOI: 10.1002/wcms.1493
   
   for GFN2-xTB:
   * C. Bannwarth, S. Ehlert and S. Grimme., J. Chem. Theory Comput., 2019,
     15, 1652-1671. DOI: 10.1021/acs.jctc.8b01176
   for GFN1-xTB:
   * S. Grimme, C. Bannwarth, P. Shushkov, J. Chem. Theory Comput., 2017,
     13, 1989-2009. DOI: 10.1021/acs.jctc.7b00118
   for GFN0-xTB:
   * P. Pracht, E. Caldeweyher, S. Ehlert, S. Grimme, ChemRxiv, 2019, preprint.
     DOI: 10.26434/chemrxiv.8326202.v1
   for GFN-FF:
   * S. Spicher and S. Grimme, Angew. Chem. Int. Ed., 2020, 59, 15665-15673.
     DOI: 10.1002/anie.202004239
   
   for ALPB and GBSA implicit solvation:
   * S. Ehlert, M. Stahn, S. Spicher, S. Grimme, J. Chem. Theory Comput.,
     2021, 17, 4250-4261. DOI: 10.1021/acs.jctc.1c00471
   
   for DFT-D4:
   * E. Caldeweyher, C. Bannwarth and S. Grimme, J. Chem. Phys., 2017,
     147, 034112. DOI: 10.1063/1.4993215
   * E. Caldeweyher, S. Ehlert, A. Hansen, H. Neugebauer, S. Spicher,
     C. Bannwarth and S. Grimme, J. Chem. Phys., 2019, 150, 154122.
     DOI: 10.1063/1.5090222
   * E. Caldeweyher, J.-M. Mewes, S. Ehlert and S. Grimme, Phys. Chem. Chem. Phys.
     2020, 22, 8499-8512. DOI: 10.1039/D0CP00502A
   
   for sTDA-xTB:
   * S. Grimme and C. Bannwarth, J. Chem. Phys., 2016, 145, 054103.
     DOI: 10.1063/1.4959605
   
   in the mass-spec context:
   * V. Asgeirsson, C. Bauer and S. Grimme, Chem. Sci., 2017, 8, 4879.
     DOI: 10.1039/c7sc00601b
   * J. Koopman and S. Grimme, ACS Omega 2019, 4, 12, 15120-15133.
     DOI: 10.1021/acsomega.9b02011
   
   for metadynamics refer to:
   * S. Grimme, J. Chem. Theory Comput., 2019, 155, 2847-2862
     DOI: 10.1021/acs.jctc.9b00143
   
   for SPH calculations refer to:
   * S. Spicher and S. Grimme, J. Chem. Theory Comput., 2021, 17, 1701-1714
     DOI: 10.1021/acs.jctc.0c01306
   
   with help from (in alphabetical order)
   P. Atkinson, C. Bannwarth, F. Bohle, G. Brandenburg, E. Caldeweyher
   M. Checinski, S. Dohm, S. Ehlert, S. Ehrlich, I. Gerasimov, C. Hölzer
   A. Katbashev, J. Koopman, C. Lavigne, S. Lehtola, F. März, M. Müller,
   F. Musil, H. Neugebauer, J. Pisarek, C. Plett, P. Pracht, F. Pultar,
   J. Seibert, P. Shushkov, S. Spicher, M. Stahn, M. Steiner, T. Strunk,
   J. Stückrath, T. Rose, and J. Unsleber
   
 * started run on 2025/05/23 at 12:05:44.520     

           -------------------------------------------------
          |                Calculation Setup                |
           -------------------------------------------------

          program call               : /gpfs/fs1/home/copan/code/autode-practice/.pixi/envs/default/bin/xtb path_opt1_xtb.xyz --chrg 0 --uhf 1 --opt --input xcontrol_path_opt1_xtb
          hostname                   : csed-0029
          coordinate file            : path_opt1_xtb.xyz
          omp threads                :                     8

   ID    Z sym.   atoms
    1    8 O      1, 2
    2    6 C      3-7
    3    1 H      8-14
constraining bond 2 6 to    2.8915000 Å, actual value:    3.1878662 Å
constraining bond 1 2 to    1.6726000 Å, actual value:    1.6193255 Å

           -------------------------------------------------
          |                 G F N 2 - x T B                 |
           -------------------------------------------------

        Reference                      10.1021/acs.jctc.8b01176
      * Hamiltonian:
        H0-scaling (s, p, d)           1.850000    2.230000    2.230000
        zeta-weighting                 0.500000
      * Dispersion:
        s8                             2.700000
        a1                             0.520000
        a2                             5.000000
        s9                             5.000000
      * Repulsion:
        kExp                           1.500000    1.000000
        rExp                           1.000000
      * Coulomb:
        alpha                          2.000000
        third order                    shell-resolved
        anisotropic                    true
        a3                             3.000000
        a5                             4.000000
        cn-shift                       1.200000
        cn-exp                         4.000000
        max-rad                        5.000000


          ...................................................
          :                      SETUP                      :
          :.................................................:
          :  # basis functions                  35          :
          :  # atomic orbitals                  35          :
          :  # shells                           21          :
          :  # electrons                        39          :
          :  max. iterations                   250          :
          :  Hamiltonian                  GFN2-xTB          :
          :  restarted?                      false          :
          :  GBSA solvation                  false          :
          :  PC potential                    false          :
          :  electronic temp.          300.0000000     K    :
          :  accuracy                    1.0000000          :
          :  -> integral cutoff          0.2500000E+02      :
          :  -> integral neglect         0.1000000E-07      :
          :  -> SCF convergence          0.1000000E-05 Eh   :
          :  -> wf. convergence          0.1000000E-03 e    :
          :  Broyden damping             0.4000000          :
          ...................................................

 iter      E             dE          RMSdq      gap      omega  full diag
   1    -22.4700213 -0.224700E+02  0.391E+00    1.86       0.0  T
   2    -22.4838372 -0.138159E-01  0.223E+00    2.26       1.0  T
   3    -22.4807967  0.304052E-02  0.800E-01    1.88       1.0  T
   4    -22.4831978 -0.240109E-02  0.368E-01    1.93       1.0  T
   5    -22.4852517 -0.205397E-02  0.901E-02    1.95       1.0  T
   6    -22.4852998 -0.480478E-04  0.383E-02    1.96       1.0  T
   7    -22.4853011 -0.132182E-05  0.136E-02    1.97       2.0  T
   8    -22.4853014 -0.332807E-06  0.527E-03    1.96       5.1  T
   9    -22.4853015 -0.106343E-06  0.257E-03    1.96      10.4  T
  10    -22.4853016 -0.215042E-07  0.129E-03    1.96      20.7  T
  11    -22.4853016 -0.793888E-08  0.513E-04    1.96      52.1  T
  12    -22.4853016 -0.139401E-08  0.149E-04    1.96     179.0  T

   *** convergence criteria satisfied after 12 iterations ***

         #    Occupation            Energy/Eh            Energy/eV
      -------------------------------------------------------------
         1        2.0000           -0.6997498             -19.0412
       ...           ...                  ...                  ...
        14        2.0000           -0.4677096             -12.7270
        15        2.0000           -0.4632548             -12.6058
        16        2.0000           -0.4590556             -12.4915
        17        2.0000           -0.4552794             -12.3888
        18        2.0000           -0.4403253             -11.9819
        19        2.0000           -0.4101310             -11.1602
        20        1.0000           -0.3306591              -8.9977 (HOMO)
        21                         -0.2585509              -7.0355 (LUMO)
        22                         -0.1822170              -4.9584
        23                          0.0600465               1.6339
        24                          0.0773038               2.1035
        25                          0.1160765               3.1586
       ...                                ...                  ...
        35                          0.6094221              16.5832
      -------------------------------------------------------------
                  HL-Gap            0.0721083 Eh            1.9622 eV
             Fermi-level           -0.3325000 Eh           -9.0478 eV

 SCC (total)                   0 d,  0 h,  0 min,  0.010 sec
 SCC setup                      ...        0 min,  0.000 sec (  1.830%)
 Dispersion                     ...        0 min,  0.000 sec (  1.109%)
 classical contributions        ...        0 min,  0.000 sec (  1.391%)
 integral evaluation            ...        0 min,  0.000 sec (  4.103%)
 iterations                     ...        0 min,  0.008 sec ( 79.264%)
 molecular gradient             ...        0 min,  0.001 sec (  9.760%)
 printout                       ...        0 min,  0.000 sec (  2.310%)

         :::::::::::::::::::::::::::::::::::::::::::::::::::::
         ::                     SUMMARY                     ::
         :::::::::::::::::::::::::::::::::::::::::::::::::::::
         :: total energy             -21.586810703750 Eh    ::
         :: gradient norm              3.319066437175 Eh/a0 ::
         :: HOMO-LUMO gap              1.962166355119 eV    ::
         ::.................................................::
         :: SCC energy               -22.485301575740 Eh    ::
         :: -> isotropic ES            0.033848165665 Eh    ::
         :: -> anisotropic ES         -0.006182412541 Eh    ::
         :: -> anisotropic XC          0.004765427764 Eh    ::
         :: -> dispersion             -0.008644697532 Eh    ::
         :: repulsion energy           0.250890998741 Eh    ::
         :: add. restraining           0.647584491467 Eh    ::
         :: total charge              -0.000000000000 e     ::
         :::::::::::::::::::::::::::::::::::::::::::::::::::::

      ----------------------------------------------------------- 
     |                   =====================                   |
     |                        A N C O P T                        |
     |                   =====================                   |
     |               Approximate Normal Coordinate               |
     |                Rational Function Optimizer                |
      ----------------------------------------------------------- 

          ...................................................
          :                      SETUP                      :
          :.................................................:
          :   optimization level            normal          :
          :   max. optcycles                   200          :
          :   ANC micro-cycles                  20          :
          :   degrees of freedom                36          :
          :.................................................:
          :   RF solver                   davidson          :
          :   write xtbopt.log                true          :
          :   linear?                        false          :
          :   energy convergence         0.5000000E-05 Eh   :
          :   grad. convergence          0.1000000E-02 Eh/α :
          :   maxmium RF displ.          1.0000000          :
          :   Hlow (freq-cutoff)         0.1000000E-01      :
          :   Hmax (freq-cutoff)         5.0000000          :
          :   S6 in model hess.         20.0000000          :
          ...................................................

generating ANC from model Hessian ...
Using Lindh-Hessian (1995)
 Shifting diagonal of input Hessian by   0.15447578148150209     
 Lowest  eigenvalues of input Hessian
    0.010000    0.108114    0.000000    0.000000    0.000000    0.000000
    0.000000    0.000000    0.164472    0.170725    0.175824    0.195159
    0.207949    0.208391    0.210657    0.220261    0.230592    0.246046
 Highest eigenvalues
    1.568449    1.689687    1.920433    2.109625    6.877093   10.916735


........................................................................
.............................. CYCLE    1 ..............................
........................................................................

 iter      E             dE          RMSdq      gap      omega  full diag
   1    -22.4853016 -0.224853E+02  0.692E-05    1.96       0.0  T
   2    -22.4853016 -0.471445E-11  0.444E-05    1.96     601.3  T
   3    -22.4853016 -0.169820E-11  0.183E-05    1.96    1457.3  T
     SCC iter.                  ...        0 min,  0.002 sec
     gradient                   ...        0 min,  0.001 sec
 * total energy  :   -21.5868107 Eh     change       -0.1372378E-09 Eh
   gradient norm :     3.3190662 Eh/α   predicted     0.0000000E+00 (-100.00%)
   displ. norm   :     0.5064819 α      lambda       -0.1668525E+01
   maximum displ.:     0.4250514 α      in ANC's #35, #36, #27, ...

........................................................................
.............................. CYCLE    2 ..............................
........................................................................

 iter      E             dE          RMSdq      gap      omega  full diag
   1    -22.4134596 -0.224135E+02  0.162E+00    1.27       0.0  T
   2    -22.4252570 -0.117974E-01  0.166E+00    2.38       1.0  T
   3    -22.4641769 -0.389199E-01  0.521E-01    1.68       1.0  T
   4    -22.4653519 -0.117499E-02  0.262E-01    1.49       1.0  T
   5    -22.4654723 -0.120374E-03  0.113E-01    1.48       1.0  T
   6    -22.4656381 -0.165854E-03  0.546E-02    1.51       1.0  T
   7    -22.4656755 -0.374118E-04  0.161E-02    1.52       1.7  T
   8    -22.4656767 -0.119441E-05  0.823E-03    1.52       3.2  T
   9    -22.4656771 -0.326156E-06  0.327E-03    1.52       8.2  T
  10    -22.4656771 -0.547676E-07  0.185E-03    1.52      14.5  T
  11    -22.4656771 -0.252492E-07  0.801E-04    1.52      33.4  T
  12    -22.4656772 -0.482518E-08  0.262E-04    1.52     101.9  T
     SCC iter.                  ...        0 min,  0.006 sec
     gradient                   ...        0 min,  0.001 sec
 * total energy  :   -22.0748299 Eh     change       -0.4880191E+00 Eh
   gradient norm :     1.6623028 Eh/α   predicted    -0.1048271E+01 ( 114.80%)
   displ. norm   :     0.2417370 α      lambda       -0.2919419E+00
   maximum displ.:     0.1638854 α      in ANC's #35, #1, #2, ...

........................................................................
.............................. CYCLE    3 ..............................
........................................................................

 iter      E             dE          RMSdq      gap      omega  full diag
   1    -22.4691430 -0.224691E+02  0.648E-01    2.46       0.0  T
   2    -22.4746183 -0.547530E-02  0.408E-01    1.80       1.0  T
   3    -22.4756171 -0.998757E-03  0.201E-01    1.91       1.0  T
   4    -22.4755742  0.428852E-04  0.102E-01    1.87       1.0  T
   5    -22.4756483 -0.740932E-04  0.374E-02    1.88       1.0  T
   6    -22.4756587 -0.104012E-04  0.197E-02    1.89       1.4  T
   7    -22.4756616 -0.290777E-05  0.593E-03    1.89       4.5  T
   8    -22.4756617 -0.978428E-07  0.285E-03    1.89       9.4  T
   9    -22.4756617 -0.247178E-07  0.103E-03    1.89      26.0  T
  10    -22.4756617 -0.438476E-08  0.530E-04    1.89      50.4  T
  11    -22.4756617 -0.125312E-08  0.219E-04    1.89     121.9  T
     SCC iter.                  ...        0 min,  0.006 sec
     gradient                   ...        0 min,  0.001 sec
 * total energy  :   -22.2090767 Eh     change       -0.1342469E+00 Eh
   gradient norm :     0.2233757 Eh/α   predicted    -0.1545010E+00 (  15.09%)
   displ. norm   :     0.3455749 α      lambda       -0.1716394E-01
   maximum displ.:     0.3219179 α      in ANC's #1, #22, #36, ...

........................................................................
.............................. CYCLE    4 ..............................
........................................................................

 iter      E             dE          RMSdq      gap      omega  full diag
   1    -22.4681243 -0.224681E+02  0.475E-01    1.60       0.0  T
   2    -22.4682232 -0.988899E-04  0.293E-01    1.67       1.0  T
   3    -22.4678133  0.409979E-03  0.202E-01    1.64       1.0  T
   4    -22.4683180 -0.504738E-03  0.329E-02    1.66       1.0  T
   5    -22.4683278 -0.981891E-05  0.138E-02    1.67       1.9  T
   6    -22.4683289 -0.105949E-05  0.633E-03    1.66       4.2  T
   7    -22.4683290 -0.121341E-06  0.271E-03    1.66       9.8  T
   8    -22.4683290 -0.175397E-07  0.901E-04    1.66      29.7  T
   9    -22.4683290 -0.347485E-08  0.248E-04    1.66     108.0  T
     SCC iter.                  ...        0 min,  0.005 sec
     gradient                   ...        0 min,  0.001 sec
 * total energy  :   -22.2147517 Eh     change       -0.5675019E-02 Eh
   gradient norm :     0.1721979 Eh/α   predicted    -0.9606849E-02 (  69.28%)
   displ. norm   :     0.5081890 α      lambda       -0.1434817E-01
   maximum displ.:     0.4911765 α      in ANC's #1, #2, #22, ...

........................................................................
.............................. CYCLE    5 ..............................
........................................................................

 iter      E             dE          RMSdq      gap      omega  full diag
   1    -22.4789700 -0.224790E+02  0.550E-01    1.81       0.0  T
   2    -22.4790858 -0.115830E-03  0.345E-01    1.88       1.0  T
   3    -22.4789557  0.130119E-03  0.121E-01    1.81       1.0  T
   4    -22.4791295 -0.173809E-03  0.217E-02    1.86       1.2  T
   5    -22.4791319 -0.233694E-05  0.121E-02    1.86       2.2  T
   6    -22.4791319  0.153469E-07  0.607E-03    1.86       4.4  T
   7    -22.4791323 -0.454904E-06  0.179E-03    1.86      14.9  T
   8    -22.4791323 -0.188651E-07  0.736E-04    1.86      36.3  T
   9    -22.4791323 -0.234483E-08  0.255E-04    1.86     104.9  T
     SCC iter.                  ...        0 min,  0.005 sec
     gradient                   ...        0 min,  0.001 sec
 * total energy  :   -22.2195920 Eh     change       -0.4840315E-02 Eh
   gradient norm :     0.0909317 Eh/α   predicted    -0.9026775E-02 (  86.49%)
   displ. norm   :     0.1186294 α      lambda       -0.3989996E-02
   maximum displ.:     0.0794285 α      in ANC's #1, #8, #6, ...

........................................................................
.............................. CYCLE    6 ..............................
........................................................................

 iter      E             dE          RMSdq      gap      omega  full diag
   1    -22.4796239 -0.224796E+02  0.161E-01    1.99       0.0  T
   2    -22.4797287 -0.104832E-03  0.105E-01    1.89       1.0  T
   3    -22.4797482 -0.194573E-04  0.606E-02    1.93       1.0  T
   4    -22.4797548 -0.664533E-05  0.130E-02    1.91       2.1  T
   5    -22.4797561 -0.126185E-05  0.493E-03    1.91       5.4  T
   6    -22.4797562 -0.495926E-07  0.268E-03    1.91      10.0  T
   7    -22.4797562 -0.583229E-07  0.137E-03    1.91      19.5  T
   8    -22.4797562 -0.148452E-07  0.410E-04    1.91      65.2  T
   9    -22.4797562 -0.399126E-09  0.965E-05    1.91     277.0  T
     SCC iter.                  ...        0 min,  0.005 sec
     gradient                   ...        0 min,  0.001 sec
 * total energy  :   -22.2210022 Eh     change       -0.1410123E-02 Eh
   gradient norm :     0.0689285 Eh/α   predicted    -0.2023072E-02 (  43.47%)
   displ. norm   :     0.1127477 α      lambda       -0.1449125E-02
   maximum displ.:     0.0712551 α      in ANC's #1, #4, #8, ...

........................................................................
.............................. CYCLE    7 ..............................
........................................................................

 iter      E             dE          RMSdq      gap      omega  full diag
   1    -22.4786819 -0.224787E+02  0.117E-01    1.89       0.0  T
   2    -22.4786932 -0.112630E-04  0.699E-02    1.92       1.0  T
   3    -22.4786886  0.461135E-05  0.286E-02    1.90       1.0  T
   4    -22.4786958 -0.718642E-05  0.549E-03    1.91       4.9  T
   5    -22.4786959 -0.138311E-06  0.273E-03    1.91       9.8  T
   6    -22.4786959 -0.130738E-07  0.128E-03    1.91      20.9  T
   7    -22.4786959 -0.239341E-08  0.599E-04    1.91      44.6  T
   8    -22.4786959 -0.279874E-08  0.309E-04    1.91      86.6  T
     SCC iter.                  ...        0 min,  0.004 sec
     gradient                   ...        0 min,  0.001 sec
 * total energy  :   -22.2221414 Eh     change       -0.1139246E-02 Eh
   gradient norm :     0.0249338 Eh/α   predicted    -0.7337760E-03 ( -35.59%)
   displ. norm   :     0.2268694 α      lambda       -0.1828016E-02
   maximum displ.:     0.1230645 α      in ANC's #1, #4, #6, ...

........................................................................
.............................. CYCLE    8 ..............................
........................................................................

 iter      E             dE          RMSdq      gap      omega  full diag
   1    -22.4762746 -0.224763E+02  0.227E-01    1.89       0.0  T
   2    -22.4763027 -0.281301E-04  0.134E-01    1.93       1.0  T
   3    -22.4762782  0.245511E-04  0.572E-02    1.90       1.0  T
   4    -22.4763101 -0.319017E-04  0.117E-02    1.92       2.3  T
   5    -22.4763112 -0.116669E-05  0.592E-03    1.92       4.5  T
   6    -22.4763114 -0.200250E-06  0.328E-03    1.92       8.1  T
   7    -22.4763115 -0.486012E-07  0.112E-03    1.92      23.8  T
   8    -22.4763115 -0.735585E-08  0.408E-04    1.92      65.5  T
   9    -22.4763115 -0.542833E-09  0.178E-04    1.92     150.2  T
     SCC iter.                  ...        0 min,  0.005 sec
     gradient                   ...        0 min,  0.001 sec
 * total energy  :   -22.2231506 Eh     change       -0.1009219E-02 Eh
   gradient norm :     0.0588631 Eh/α   predicted    -0.9610466E-03 (  -4.77%)
   displ. norm   :     0.1142736 α      lambda       -0.9010532E-03
   maximum displ.:     0.0603198 α      in ANC's #4, #6, #3, ...

........................................................................
.............................. CYCLE    9 ..............................
........................................................................

 iter      E             dE          RMSdq      gap      omega  full diag
   1    -22.4771563 -0.224772E+02  0.111E-01    1.95       0.0  T
   2    -22.4771594 -0.314640E-05  0.677E-02    1.94       1.0  T
   3    -22.4771553  0.418019E-05  0.183E-02    1.95       1.5  T
   4    -22.4771602 -0.495202E-05  0.371E-03    1.94       7.2  T
   5    -22.4771603 -0.128972E-06  0.209E-03    1.94      12.8  T
   6    -22.4771604 -0.234697E-07  0.980E-04    1.94      27.3  T
   7    -22.4771604 -0.490470E-08  0.325E-04    1.94      82.3  T
     SCC iter.                  ...        0 min,  0.004 sec
     gradient                   ...        0 min,  0.001 sec
 * total energy  :   -22.2237778 Eh     change       -0.6271667E-03 Eh
   gradient norm :     0.0312056 Eh/α   predicted    -0.4564114E-03 ( -27.23%)
   displ. norm   :     0.1579802 α      lambda       -0.7640743E-03
   maximum displ.:     0.0905074 α      in ANC's #4, #6, #3, ...

........................................................................
.............................. CYCLE   10 ..............................
........................................................................

 iter      E             dE          RMSdq      gap      omega  full diag
   1    -22.4773152 -0.224773E+02  0.132E-01    1.97       0.0  T
   2    -22.4773166 -0.133523E-05  0.769E-02    1.97       1.0  T
   3    -22.4773060  0.105946E-04  0.279E-02    1.96       1.0  T
   4    -22.4773176 -0.116615E-04  0.310E-03    1.97       8.6  T
   5    -22.4773177 -0.101276E-06  0.156E-03    1.97      17.2  T
   6    -22.4773177 -0.792951E-08  0.751E-04    1.97      35.6  T
   7    -22.4773177 -0.253741E-08  0.243E-04    1.97     110.0  T
     SCC iter.                  ...        0 min,  0.004 sec
     gradient                   ...        0 min,  0.001 sec
 * total energy  :   -22.2242837 Eh     change       -0.5059167E-03 Eh
   gradient norm :     0.0120096 Eh/α   predicted    -0.3915747E-03 ( -22.60%)
   displ. norm   :     0.1128355 α      lambda       -0.4336425E-03
   maximum displ.:     0.0653089 α      in ANC's #4, #2, #3, ...

........................................................................
.............................. CYCLE   11 ..............................
........................................................................

 iter      E             dE          RMSdq      gap      omega  full diag
   1    -22.4782575 -0.224783E+02  0.844E-02    1.98       0.0  T
   2    -22.4782581 -0.575853E-06  0.497E-02    1.99       1.0  T
   3    -22.4782565  0.164493E-05  0.117E-02    1.98       2.3  T
   4    -22.4782583 -0.186030E-05  0.232E-03    1.99      11.5  T
   5    -22.4782584 -0.582944E-07  0.112E-03    1.99      23.8  T
   6    -22.4782584 -0.436289E-08  0.517E-04    1.99      51.7  T
   7    -22.4782584 -0.138586E-08  0.141E-04    1.99     189.8  T
     SCC iter.                  ...        0 min,  0.004 sec
     gradient                   ...        0 min,  0.001 sec
 * total energy  :   -22.2246205 Eh     change       -0.3368330E-03 Eh
   gradient norm :     0.0096944 Eh/α   predicted    -0.2195787E-03 ( -34.81%)
   displ. norm   :     0.1757688 α      lambda       -0.5966781E-03
   maximum displ.:     0.1002368 α      in ANC's #4, #2, #5, ...

........................................................................
.............................. CYCLE   12 ..............................
........................................................................

 iter      E             dE          RMSdq      gap      omega  full diag
   1    -22.4788526 -0.224789E+02  0.124E-01    2.00       0.0  T
   2    -22.4788550 -0.244894E-05  0.738E-02    2.01       1.0  T
   3    -22.4788520  0.299744E-05  0.172E-02    2.00       1.6  T
   4    -22.4788558 -0.381937E-05  0.315E-03    2.01       8.5  T
   5    -22.4788559 -0.238447E-07  0.179E-03    2.01      14.9  T
   6    -22.4788559 -0.293132E-08  0.704E-04    2.01      38.0  T
   7    -22.4788559 -0.189246E-08  0.326E-04    2.01      82.1  T
     SCC iter.                  ...        0 min,  0.004 sec
     gradient                   ...        0 min,  0.001 sec
 * total energy  :   -22.2250374 Eh     change       -0.4168816E-03 Eh
   gradient norm :     0.0108717 Eh/α   predicted    -0.3075579E-03 ( -26.22%)
   displ. norm   :     0.1316257 α      lambda       -0.3394459E-03
   maximum displ.:     0.0746925 α      in ANC's #4, #2, #5, ...

........................................................................
.............................. CYCLE   13 ..............................
........................................................................

 iter      E             dE          RMSdq      gap      omega  full diag
   1    -22.4790442 -0.224790E+02  0.872E-02    2.02       0.0  T
   2    -22.4790451 -0.932930E-06  0.515E-02    2.03       1.0  T
   3    -22.4790427  0.239782E-05  0.136E-02    2.02       2.0  T
   4    -22.4790455 -0.276907E-05  0.324E-03    2.02       8.3  T
   5    -22.4790456 -0.753020E-07  0.181E-03    2.03      14.7  T
   6    -22.4790456 -0.124809E-07  0.743E-04    2.03      36.0  T
   7    -22.4790456 -0.189663E-08  0.273E-04    2.03      97.7  T
     SCC iter.                  ...        0 min,  0.004 sec
     gradient                   ...        0 min,  0.001 sec
 * total energy  :   -22.2252726 Eh     change       -0.2351292E-03 Eh
   gradient norm :     0.0083227 Eh/α   predicted    -0.1726610E-03 ( -26.57%)
   displ. norm   :     0.0937830 α      lambda       -0.1973705E-03
   maximum displ.:     0.0537862 α      in ANC's #4, #2, #5, ...

........................................................................
.............................. CYCLE   14 ..............................
........................................................................

 iter      E             dE          RMSdq      gap      omega  full diag
   1    -22.4789321 -0.224789E+02  0.632E-02    2.03       0.0  T
   2    -22.4789326 -0.541218E-06  0.372E-02    2.04       1.0  T
   3    -22.4789295  0.311864E-05  0.150E-02    2.03       1.8  T
   4    -22.4789330 -0.350353E-05  0.259E-03    2.04      10.3  T
   5    -22.4789330 -0.513034E-07  0.127E-03    2.04      21.0  T
   6    -22.4789330 -0.269270E-08  0.535E-04    2.04      50.0  T
   7    -22.4789330 -0.118746E-08  0.224E-04    2.04     119.1  T
     SCC iter.                  ...        0 min,  0.004 sec
     gradient                   ...        0 min,  0.001 sec
 * total energy  :   -22.2254116 Eh     change       -0.1390445E-03 Eh
   gradient norm :     0.0059917 Eh/α   predicted    -0.9955155E-04 ( -28.40%)
   displ. norm   :     0.0588863 α      lambda       -0.1275743E-03
   maximum displ.:     0.0322798 α      in ANC's #4, #2, #5, ...

........................................................................
.............................. CYCLE   15 ..............................
........................................................................

 iter      E             dE          RMSdq      gap      omega  full diag
   1    -22.4789142 -0.224789E+02  0.508E-02    2.04       0.0  T
   2    -22.4789146 -0.369150E-06  0.297E-02    2.04       1.0  T
   3    -22.4789118  0.280735E-05  0.142E-02    2.04       1.9  T
   4    -22.4789149 -0.313355E-05  0.220E-03    2.04      12.2  T
   5    -22.4789150 -0.494838E-07  0.758E-04    2.04      35.2  T
   6    -22.4789150 -0.446914E-09  0.306E-04    2.04      87.4  T
     SCC iter.                  ...        0 min,  0.003 sec
     gradient                   ...        0 min,  0.001 sec
 * total energy  :   -22.2254959 Eh     change       -0.8431879E-04 Eh
   gradient norm :     0.0043659 Eh/α   predicted    -0.6400929E-04 ( -24.09%)
   displ. norm   :     0.0269155 α      lambda       -0.5045741E-04
   maximum displ.:     0.0139492 α      in ANC's #4, #2, #17, ...

........................................................................
.............................. CYCLE   16 ..............................
........................................................................

 iter      E             dE          RMSdq      gap      omega  full diag
   1    -22.4787062 -0.224787E+02  0.287E-02    2.05       0.0  T
   2    -22.4787066 -0.365277E-06  0.171E-02    2.05       1.6  T
   3    -22.4787058  0.847780E-06  0.854E-03    2.05       3.1  T
   4    -22.4787067 -0.977354E-06  0.220E-03    2.05      12.1  T
   5    -22.4787068 -0.690515E-07  0.364E-04    2.05      73.4  T
   6    -22.4787068 -0.220442E-09  0.263E-04    2.05     101.7  T
     SCC iter.                  ...        0 min,  0.003 sec
     gradient                   ...        0 min,  0.001 sec
 * total energy  :   -22.2255290 Eh     change       -0.3311193E-04 Eh
   gradient norm :     0.0048299 Eh/α   predicted    -0.2524552E-04 ( -23.76%)
   displ. norm   :     0.0197483 α      lambda       -0.3022756E-04
   maximum displ.:     0.0103678 α      in ANC's #6, #1, #22, ...

........................................................................
.............................. CYCLE   17 ..............................
........................................................................

 iter      E             dE          RMSdq      gap      omega  full diag
   1    -22.4789580 -0.224790E+02  0.238E-02    2.05       0.0  T
   2    -22.4789582 -0.176344E-06  0.143E-02    2.05       1.9  T
   3    -22.4789576  0.560036E-06  0.660E-03    2.05       4.0  T
   4    -22.4789582 -0.619156E-06  0.149E-03    2.05      17.9  T
   5    -22.4789582 -0.278772E-07  0.441E-04    2.05      60.7  T
   6    -22.4789582 -0.414929E-09  0.248E-04    2.05     107.8  T
     SCC iter.                  ...        0 min,  0.003 sec
     gradient                   ...        0 min,  0.001 sec
 * total energy  :   -22.2255478 Eh     change       -0.1881391E-04 Eh
   gradient norm :     0.0035387 Eh/α   predicted    -0.1512056E-04 ( -19.63%)
   displ. norm   :     0.0268139 α      lambda       -0.3042329E-04
   maximum displ.:     0.0111960 α      in ANC's #4, #7, #8, ...

........................................................................
.............................. CYCLE   18 ..............................
........................................................................

 iter      E             dE          RMSdq      gap      omega  full diag
   1    -22.4787168 -0.224787E+02  0.201E-02    2.05       0.0  T
   2    -22.4787171 -0.339103E-06  0.121E-02    2.06       2.2  T
   3    -22.4787168  0.296236E-06  0.620E-03    2.05       4.3  T
   4    -22.4787172 -0.409281E-06  0.159E-03    2.05      16.8  T
   5    -22.4787172 -0.368050E-07  0.369E-04    2.05      72.4  T
   6    -22.4787172 -0.716426E-09  0.210E-04    2.05     127.0  T
     SCC iter.                  ...        0 min,  0.003 sec
     gradient                   ...        0 min,  0.001 sec
 * total energy  :   -22.2255691 Eh     change       -0.2129643E-04 Eh
   gradient norm :     0.0034843 Eh/α   predicted    -0.1522381E-04 ( -28.51%)
   displ. norm   :     0.0337748 α      lambda       -0.3460277E-04
   maximum displ.:     0.0163852 α      in ANC's #7, #8, #3, ...

........................................................................
.............................. CYCLE   19 ..............................
........................................................................

 iter      E             dE          RMSdq      gap      omega  full diag
   1    -22.4786902 -0.224787E+02  0.230E-02    2.06       0.0  T
   2    -22.4786903 -0.888325E-07  0.137E-02    2.06       2.0  T
   3    -22.4786900  0.290311E-06  0.459E-03    2.06       5.8  T
   4    -22.4786903 -0.328445E-06  0.929E-04    2.06      28.8  T
   5    -22.4786903 -0.986379E-08  0.458E-04    2.06      58.4  T
     SCC iter.                  ...        0 min,  0.003 sec
     gradient                   ...        0 min,  0.001 sec
 * total energy  :   -22.2255944 Eh     change       -0.2529003E-04 Eh
   gradient norm :     0.0030257 Eh/α   predicted    -0.1731933E-04 ( -31.52%)
   displ. norm   :     0.0364237 α      lambda       -0.2867993E-04
   maximum displ.:     0.0171932 α      in ANC's #7, #3, #2, ...

........................................................................
.............................. CYCLE   20 ..............................
........................................................................

 iter      E             dE          RMSdq      gap      omega  full diag
   1    -22.4787070 -0.224787E+02  0.223E-02    2.06       0.0  T
   2    -22.4787071 -0.128495E-06  0.133E-02    2.07       2.0  T
   3    -22.4787070  0.866772E-07  0.334E-03    2.06       8.0  T
   4    -22.4787071 -0.113978E-06  0.794E-04    2.07      33.7  T
   5    -22.4787071 -0.344097E-08  0.350E-04    2.06      76.5  T
     SCC iter.                  ...        0 min,  0.003 sec
     gradient                   ...        0 min,  0.001 sec
 * total energy  :   -22.2256135 Eh     change       -0.1906168E-04 Eh
   gradient norm :     0.0022254 Eh/α   predicted    -0.1435741E-04 ( -24.68%)
   displ. norm   :     0.0221338 α      lambda       -0.1368197E-04
   maximum displ.:     0.0132194 α      in ANC's #3, #7, #2, ...
 * RMSD in coord.:     0.3943791 α      energy gain  -0.6388028E+00 Eh

generating ANC from model Hessian ...
Using Lindh-Hessian (1995)
 Shifting diagonal of input Hessian by    2.1610914701217086E-002
 Lowest  eigenvalues of input Hessian
    0.010000    0.000000    0.000000    0.000000    0.000000    0.000000
    0.000000    0.024297    0.028108    0.038485    0.042592    0.052867
    0.069659    0.077180    0.079255    0.085160    0.096044    0.102385
 Highest eigenvalues
    1.382369    1.495888    1.753621    1.822177    6.621494   10.614444


........................................................................
.............................. CYCLE   21 ..............................
........................................................................

 iter      E             dE          RMSdq      gap      omega  full diag
   1    -22.4787878 -0.224788E+02  0.133E-02    2.07       0.0  T
   2    -22.4787878 -0.534196E-07  0.805E-03    2.07       3.3  T
   3    -22.4787877  0.752160E-07  0.264E-03    2.07      10.1  T
   4    -22.4787878 -0.787453E-07  0.981E-04    2.07      27.2  T
   5    -22.4787878 -0.124157E-07  0.280E-04    2.07      95.3  T
     SCC iter.                  ...        0 min,  0.003 sec
     gradient                   ...        0 min,  0.001 sec
 * total energy  :   -22.2256239 Eh     change       -0.1043999E-04 Eh
   gradient norm :     0.0022804 Eh/α   predicted     0.0000000E+00 (-100.00%)
   displ. norm   :     0.0324335 α      lambda       -0.3358751E-04
   maximum displ.:     0.0270806 α      in ANC's #3, #1, #6, ...

........................................................................
.............................. CYCLE   22 ..............................
........................................................................

 iter      E             dE          RMSdq      gap      omega  full diag
   1    -22.4786854 -0.224787E+02  0.298E-02    2.06       0.0  T
   2    -22.4786855 -0.145844E-06  0.186E-02    2.06       1.4  T
   3    -22.4786852  0.320938E-06  0.508E-03    2.06       5.3  T
   4    -22.4786856 -0.381666E-06  0.136E-03    2.06      19.7  T
   5    -22.4786856 -0.152764E-07  0.679E-04    2.06      39.3  T
   6    -22.4786856 -0.883716E-09  0.293E-04    2.06      91.2  T
     SCC iter.                  ...        0 min,  0.003 sec
     gradient                   ...        0 min,  0.001 sec
 * total energy  :   -22.2256508 Eh     change       -0.2684351E-04 Eh
   gradient norm :     0.0022661 Eh/α   predicted    -0.1681327E-04 ( -37.37%)
   displ. norm   :     0.1006424 α      lambda       -0.7625609E-04
   maximum displ.:     0.0950060 α      in ANC's #3, #4, #5, ...

........................................................................
.............................. CYCLE   23 ..............................
........................................................................

 iter      E             dE          RMSdq      gap      omega  full diag
   1    -22.4782830 -0.224783E+02  0.670E-02    2.06       0.0  T
   2    -22.4782838 -0.853925E-06  0.410E-02    2.06       1.0  T
   3    -22.4782826  0.128549E-05  0.112E-02    2.06       2.4  T
   4    -22.4782842 -0.161726E-05  0.296E-03    2.06       9.0  T
   5    -22.4782842 -0.618149E-07  0.172E-03    2.06      15.6  T
   6    -22.4782842 -0.897630E-08  0.617E-04    2.06      43.3  T
   7    -22.4782843 -0.363019E-08  0.169E-04    2.06     157.9  T
     SCC iter.                  ...        0 min,  0.004 sec
     gradient                   ...        0 min,  0.001 sec
 * total energy  :   -22.2256932 Eh     change       -0.4243810E-04 Eh
   gradient norm :     0.0055967 Eh/α   predicted    -0.3851757E-04 (  -9.24%)
   displ. norm   :     0.0476713 α      lambda       -0.3373922E-04
   maximum displ.:     0.0373272 α      in ANC's #3, #1, #5, ...

........................................................................
.............................. CYCLE   24 ..............................
........................................................................

 iter      E             dE          RMSdq      gap      omega  full diag
   1    -22.4785019 -0.224785E+02  0.282E-02    2.06       0.0  T
   2    -22.4785022 -0.346252E-06  0.171E-02    2.06       1.6  T
   3    -22.4785019  0.323003E-06  0.642E-03    2.06       4.2  T
   4    -22.4785023 -0.428182E-06  0.969E-04    2.06      27.6  T
   5    -22.4785023 -0.493094E-08  0.476E-04    2.06      56.1  T
     SCC iter.                  ...        0 min,  0.003 sec
     gradient                   ...        0 min,  0.001 sec
 * total energy  :   -22.2257198 Eh     change       -0.2661116E-04 Eh
   gradient norm :     0.0041566 Eh/α   predicted    -0.1690642E-04 ( -36.47%)
   displ. norm   :     0.0990051 α      lambda       -0.5397203E-04
   maximum displ.:     0.0835588 α      in ANC's #3, #1, #5, ...

........................................................................
.............................. CYCLE   25 ..............................
........................................................................

 iter      E             dE          RMSdq      gap      omega  full diag
   1    -22.4787397 -0.224787E+02  0.523E-02    2.06       0.0  T
   2    -22.4787402 -0.498130E-06  0.316E-02    2.07       1.0  T
   3    -22.4787393  0.845930E-06  0.882E-03    2.06       3.0  T
   4    -22.4787403 -0.101979E-05  0.164E-03    2.07      16.3  T
   5    -22.4787404 -0.191482E-07  0.103E-03    2.07      26.0  T
   6    -22.4787404 -0.613567E-08  0.430E-04    2.07      62.1  T
   7    -22.4787404 -0.133310E-08  0.158E-04    2.07     168.9  T
     SCC iter.                  ...        0 min,  0.004 sec
     gradient                   ...        0 min,  0.001 sec
 * total energy  :   -22.2257558 Eh     change       -0.3602090E-04 Eh
   gradient norm :     0.0027187 Eh/α   predicted    -0.2725198E-04 ( -24.34%)
   displ. norm   :     0.0813070 α      lambda       -0.3030518E-04
   maximum displ.:     0.0784276 α      in ANC's #3, #1, #5, ...

........................................................................
.............................. CYCLE   26 ..............................
........................................................................

 iter      E             dE          RMSdq      gap      omega  full diag
   1    -22.4784217 -0.224784E+02  0.417E-02    2.07       0.0  T
   2    -22.4784218 -0.153465E-06  0.254E-02    2.07       1.1  T
   3    -22.4784211  0.752619E-06  0.743E-03    2.07       3.6  T
   4    -22.4784220 -0.884962E-06  0.142E-03    2.07      18.8  T
   5    -22.4784220 -0.437728E-08  0.791E-04    2.07      33.8  T
   6    -22.4784220 -0.106510E-08  0.131E-04    2.07     204.7  T
     SCC iter.                  ...        0 min,  0.003 sec
     gradient                   ...        0 min,  0.001 sec
 * total energy  :   -22.2257743 Eh     change       -0.1842952E-04 Eh
   gradient norm :     0.0037666 Eh/α   predicted    -0.1525417E-04 ( -17.23%)
   displ. norm   :     0.0474700 α      lambda       -0.2334580E-04
   maximum displ.:     0.0408439 α      in ANC's #3, #1, #7, ...

........................................................................
.............................. CYCLE   27 ..............................
........................................................................

 iter      E             dE          RMSdq      gap      omega  full diag
   1    -22.4787475 -0.224787E+02  0.283E-02    2.07       0.0  T
   2    -22.4787476 -0.606121E-07  0.168E-02    2.07       1.6  T
   3    -22.4787472  0.412483E-06  0.538E-03    2.07       5.0  T
   4    -22.4787476 -0.466954E-06  0.889E-04    2.07      30.1  T
   5    -22.4787476 -0.514318E-08  0.519E-04    2.07      51.5  T
     SCC iter.                  ...        0 min,  0.003 sec
     gradient                   ...        0 min,  0.001 sec
 * total energy  :   -22.2257870 Eh     change       -0.1276589E-04 Eh
   gradient norm :     0.0026020 Eh/α   predicted    -0.1169922E-04 (  -8.36%)
   displ. norm   :     0.0436488 α      lambda       -0.1005081E-04
   maximum displ.:     0.0427253 α      in ANC's #3, #29, #7, ...

........................................................................
.............................. CYCLE   28 ..............................
........................................................................

 iter      E             dE          RMSdq      gap      omega  full diag
   1    -22.4785726 -0.224786E+02  0.261E-02    2.07       0.0  T
   2    -22.4785728 -0.136530E-06  0.160E-02    2.07       1.7  T
   3    -22.4785724  0.413004E-06  0.598E-03    2.07       4.5  T
   4    -22.4785728 -0.477018E-06  0.142E-03    2.07      18.8  T
   5    -22.4785729 -0.208917E-07  0.663E-04    2.07      40.3  T
   6    -22.4785729 -0.441215E-09  0.272E-04    2.07      98.3  T
     SCC iter.                  ...        0 min,  0.003 sec
     gradient                   ...        0 min,  0.001 sec
 * total energy  :   -22.2257931 Eh     change       -0.6077397E-05 Eh
   gradient norm :     0.0025891 Eh/α   predicted    -0.5034709E-05 ( -17.16%)
   displ. norm   :     0.0205439 α      lambda       -0.9660804E-05
   maximum displ.:     0.0117075 α      in ANC's #3, #1, #5, ...

........................................................................
.............................. CYCLE   29 ..............................
........................................................................

 iter      E             dE          RMSdq      gap      omega  full diag
   1    -22.4787661 -0.224788E+02  0.199E-02    2.07       0.0  T
   2    -22.4787662 -0.102910E-06  0.124E-02    2.07       2.2  T
   3    -22.4787660  0.213694E-06  0.469E-03    2.07       5.7  T
   4    -22.4787663 -0.257317E-06  0.104E-03    2.07      25.8  T
   5    -22.4787663 -0.934807E-08  0.492E-04    2.07      54.3  T
   6    -22.4787663 -0.487312E-09  0.239E-04    2.07     112.0  T
     SCC iter.                  ...        0 min,  0.003 sec
     gradient                   ...        0 min,  0.001 sec
 * total energy  :   -22.2257999 Eh     change       -0.6759628E-05 Eh
   gradient norm :     0.0018959 Eh/α   predicted    -0.4833578E-05 ( -28.49%)
   displ. norm   :     0.0374352 α      lambda       -0.5936618E-05
   maximum displ.:     0.0265233 α      in ANC's #3, #1, #5, ...

........................................................................
.............................. CYCLE   30 ..............................
........................................................................

 iter      E             dE          RMSdq      gap      omega  full diag
   1    -22.4787787 -0.224788E+02  0.328E-02    2.06       0.0  T
   2    -22.4787790 -0.290157E-06  0.204E-02    2.06       1.3  T
   3    -22.4787786  0.465265E-06  0.733E-03    2.06       3.6  T
   4    -22.4787791 -0.587539E-06  0.156E-03    2.06      17.2  T
   5    -22.4787792 -0.177492E-07  0.780E-04    2.06      34.3  T
   6    -22.4787792 -0.152743E-08  0.405E-04    2.06      66.0  T
     SCC iter.                  ...        0 min,  0.003 sec
     gradient                   ...        0 min,  0.001 sec
 * total energy  :   -22.2258043 Eh     change       -0.4466257E-05 Eh
   gradient norm :     0.0014190 Eh/α   predicted    -0.2970821E-05 ( -33.48%)
   displ. norm   :     0.0064770 α      lambda       -0.1825097E-05
   maximum displ.:     0.0030546 α      in ANC's #4, #1, #3, ...

........................................................................
.............................. CYCLE   31 ..............................
........................................................................

 iter      E             dE          RMSdq      gap      omega  full diag
   1    -22.4788718 -0.224789E+02  0.724E-03    2.06       0.0  T
   2    -22.4788718 -0.220694E-07  0.420E-03    2.06       6.4  T
   3    -22.4788718  0.122937E-07  0.152E-03    2.06      17.6  T
   4    -22.4788718 -0.169246E-07  0.423E-04    2.06      63.2  T
   5    -22.4788718 -0.168086E-08  0.186E-04    2.06     143.9  T
     SCC iter.                  ...        0 min,  0.003 sec
     gradient                   ...        0 min,  0.001 sec
 * total energy  :   -22.2258054 Eh     change       -0.1035664E-05 Eh
   gradient norm :     0.0010426 Eh/α   predicted    -0.9112786E-06 ( -12.01%)
   displ. norm   :     0.0242526 α      lambda       -0.1191400E-05
   maximum displ.:     0.0233062 α      in ANC's #3, #1, #29, ...

........................................................................
.............................. CYCLE   32 ..............................
........................................................................

 iter      E             dE          RMSdq      gap      omega  full diag
   1    -22.4786812 -0.224787E+02  0.129E-02    2.06       0.0  T
   2    -22.4786812 -0.179194E-07  0.785E-03    2.06       3.4  T
   3    -22.4786811  0.749235E-07  0.235E-03    2.06      11.4  T
   4    -22.4786812 -0.889479E-07  0.492E-04    2.06      54.3  T
   5    -22.4786812 -0.718114E-09  0.296E-04    2.06      90.3  T
     SCC iter.                  ...        0 min,  0.003 sec
     gradient                   ...        0 min,  0.001 sec
 * total energy  :   -22.2258058 Eh     change       -0.3728526E-06 Eh
   gradient norm :     0.0010616 Eh/α   predicted    -0.5960900E-06 (  59.87%)
   displ. norm   :     0.0096109 α      lambda       -0.5819097E-06
   maximum displ.:     0.0089102 α      in ANC's #3, #1, #29, ...

........................................................................
.............................. CYCLE   33 ..............................
........................................................................

 iter      E             dE          RMSdq      gap      omega  full diag
   1    -22.4787950 -0.224788E+02  0.527E-03    2.06       0.0  T
   2    -22.4787950 -0.864951E-08  0.313E-03    2.06       8.5  T
   3    -22.4787950  0.767814E-08  0.101E-03    2.06      26.5  T
   4    -22.4787950 -0.104855E-07  0.167E-04    2.06     160.5  T
   5    -22.4787950 -0.138172E-09  0.897E-05    2.06     298.1  T
     SCC iter.                  ...        0 min,  0.003 sec
     gradient                   ...        0 min,  0.001 sec
 * total energy  :   -22.2258062 Eh     change       -0.4118850E-06 Eh
   gradient norm :     0.0006259 Eh/α   predicted    -0.2914544E-06 ( -29.24%)
   displ. norm   :     0.0024368 α      lambda       -0.1120454E-06
   maximum displ.:     0.0017462 α      in ANC's #3, #5, #1, ...

   *** GEOMETRY OPTIMIZATION CONVERGED AFTER 33 ITERATIONS ***

------------------------------------------------------------------------
 total energy gain   :        -0.6389955 Eh     -400.9757 kcal/mol
 total RMSD          :         0.4375357 a0        0.2315 Å
 total power (kW/mol):       -50.8388593 (step)-9172.1109 (real)
------------------------------------------------------------------------

 ANCopt (total)                0 d,  0 h,  0 min,  0.183 sec
 optimizer setup                ...        0 min,  0.000 sec (  0.069%)
 model hessian                  ...        0 min,  0.006 sec (  3.093%)
 ANC generation                 ...        0 min,  0.001 sec (  0.395%)
 coordinate transformation      ...        0 min,  0.000 sec (  0.099%)
 single point calculation       ...        0 min,  0.163 sec ( 89.333%)
 optimization log               ...        0 min,  0.003 sec (  1.719%)
 hessian update                 ...        0 min,  0.000 sec (  0.194%)
 rational function              ...        0 min,  0.004 sec (  2.231%)

================
 final structure:
================
14
 xtb: 6.6.1 (8d0f1dd)
O           -2.33039186021640       -0.85198997093429        1.02085647728850
O           -1.01964571863028        0.17619709033763        1.01525522319399
C           -0.65134834593841        0.51398654915549       -0.26806427665658
C            0.50594934977007        1.33988429937010        0.21054826095134
C            1.63067609627067        0.53169039288334        0.21415746641559
C            1.36056805143863       -0.66647763896227       -0.39639570183626
C           -0.01139340608417       -0.69329345452346       -0.96124459678669
H           -2.50516491756695       -0.81664386785263        1.96382023865369
H           -1.44292985679515        1.02370018148858       -0.82564662415014
H            0.38925084876283        2.30766477645849        0.65576387144276
H            2.58020290292117        0.80945737330820        0.63718768799565
H            2.05319149356374       -1.48196674905930       -0.50661288349492
H            0.00275643327435       -0.59147429474632       -2.04995741368442
H           -0.56173107077019       -1.60064468692356       -0.70966772933256

 Bond Distances (Angstroems)
 ---------------------------
O1-H8=0.9597         O2-C3=1.3772         C3-O2=1.3772         C3-C4=1.5002         C3-C7=1.5322         C3-H9=1.0942         
C4-C3=1.5002         C4-C5=1.3850         C4-H10=1.0717        C5-C4=1.3850         C5-C6=1.3716         C5-H11=1.0760        
C6-C5=1.3716         C6-C7=1.4839         C6-H12=1.0756        C7-C3=1.5322         C7-C6=1.4839         C7-H13=1.0936        
C7-H14=1.0906        H8-O1=0.9597         H9-C3=1.0942         H10-C4=1.0717        H11-C5=1.0760        H12-C6=1.0756        
H13-C7=1.0936        H14-C7=1.0906        
 C  H  Rav=1.0836 sigma=0.0094  Rmin=1.0717  Rmax=1.0942     6
 C  C  Rav=1.4546 sigma=0.0643  Rmin=1.3716  Rmax=1.5322     5
 O  H  Rav=0.9597 sigma=0.0000  Rmin=0.9597  Rmax=0.9597     1
 O  C  Rav=1.3772 sigma=0.0000  Rmin=1.3772  Rmax=1.3772     1

 selected bond angles (degree)
 --------------------
C4-C3-O2= 92.52                C7-C3-O2=109.88                C7-C3-C4=104.83                H9-C3-O2=113.31                
H9-C3-C4=117.66                H9-C3-C7=116.02                C5-C4-C3=107.82                H10-C4-C3=123.07               
H10-C4-C5=127.90               C6-C5-C4=110.41                H11-C5-C4=124.54               H11-C5-C6=125.05               
C7-C6-C5=111.55                H12-C6-C5=125.53               H12-C6-C7=122.86               C6-C7-C3=101.52                
H13-C7-C3=112.49               H13-C7-C6=111.43               H14-C7-C3=109.90               H14-C7-C6=113.19               
H14-C7-H13=108.28              

 selected dihedral angles (degree)
 ---------------------------------
C5-C4-C3-O2= 93.50            C5-C4-C3-C7=342.17            C5-C4-C3-H9=211.55            H10-C4-C3-O2=285.15           
H10-C4-C3-C7=173.82           H10-C4-C3-H9= 43.20           C6-C5-C4-C3=  8.89            C6-C5-C4-H10=176.51           
H11-C5-C4-C3=188.86           H11-C5-C4-H10=356.49          C7-C6-C5-C4=  4.28            C7-C6-C5-H11=184.30           
H12-C6-C5-C4=181.54           H12-C6-C5-H11=  1.56          C6-C7-C3-O2=280.69            C6-C7-C3-C4= 18.98            
C6-C7-C3-H9=150.55            H13-C7-C3-O2=161.49           H13-C7-C3-C4=259.78           H13-C7-C3-H9= 31.35           
H14-C7-C3-O2= 40.77           H14-C7-C3-C4=139.06           H14-C7-C3-H9=270.63           C3-C7-C6-C5=345.12            
C3-C7-C6-H12=167.77           H13-C7-C6-C5=105.07           H13-C7-C6-H12=287.72          H14-C7-C6-C5=227.39           
H14-C7-C6-H12= 50.04          
           -------------------------------------------------
          |                Final Singlepoint                |
           -------------------------------------------------

          ...................................................
          :                      SETUP                      :
          :.................................................:
          :  # basis functions                  35          :
          :  # atomic orbitals                  35          :
          :  # shells                           21          :
          :  # electrons                        39          :
          :  max. iterations                   250          :
          :  Hamiltonian                  GFN2-xTB          :
          :  restarted?                      false          :
          :  GBSA solvation                  false          :
          :  PC potential                    false          :
          :  electronic temp.          300.0000000     K    :
          :  accuracy                    1.0000000          :
          :  -> integral cutoff          0.2500000E+02      :
          :  -> integral neglect         0.1000000E-07      :
          :  -> SCF convergence          0.1000000E-05 Eh   :
          :  -> wf. convergence          0.1000000E-03 e    :
          :  Broyden damping             0.4000000          :
          ...................................................

 iter      E             dE          RMSdq      gap      omega  full diag
   1    -22.4787950 -0.224788E+02  0.418E-05    2.06       0.0  T
   2    -22.4787950  0.930811E-12  0.370E-05    2.06     722.3  T
   3    -22.4787950 -0.186091E-10  0.142E-05    2.06    1888.7  T

   *** convergence criteria satisfied after 3 iterations ***

         #    Occupation            Energy/Eh            Energy/eV
      -------------------------------------------------------------
         1        2.0000           -0.6980056             -18.9937
       ...           ...                  ...                  ...
        14        2.0000           -0.4728089             -12.8658
        15        2.0000           -0.4670960             -12.7103
        16        2.0000           -0.4557408             -12.4013
        17        2.0000           -0.4520113             -12.2999
        18        2.0000           -0.4424697             -12.0402
        19        2.0000           -0.4071081             -11.0780
        20        1.0000           -0.3391836              -9.2297 (HOMO)
        21                         -0.2633665              -7.1666 (LUMO)
        22                         -0.1844664              -5.0196
        23                          0.0459914               1.2515
        24                          0.0820974               2.2340
        25                          0.1078388               2.9344
       ...                                ...                  ...
        35                          0.6067014              16.5092
      -------------------------------------------------------------
                  HL-Gap            0.0758171 Eh            2.0631 eV
             Fermi-level           -0.3372105 Eh           -9.1760 eV

 SCC (total)                   0 d,  0 h,  0 min,  0.003 sec
 SCC setup                      ...        0 min,  0.000 sec (  2.372%)
 Dispersion                     ...        0 min,  0.000 sec (  1.681%)
 classical contributions        ...        0 min,  0.000 sec (  0.309%)
 integral evaluation            ...        0 min,  0.000 sec (  8.983%)
 iterations                     ...        0 min,  0.002 sec ( 56.891%)
 molecular gradient             ...        0 min,  0.001 sec ( 24.187%)
 printout                       ...        0 min,  0.000 sec (  5.069%)

         :::::::::::::::::::::::::::::::::::::::::::::::::::::
         ::                     SUMMARY                     ::
         :::::::::::::::::::::::::::::::::::::::::::::::::::::
         :: total energy             -22.225806165821 Eh    ::
         :: gradient norm              0.000625319712 Eh/a0 ::
         :: HOMO-LUMO gap              2.063088619060 eV    ::
         ::.................................................::
         :: SCC energy               -22.478795021847 Eh    ::
         :: -> isotropic ES            0.038612701660 Eh    ::
         :: -> anisotropic ES         -0.007266547578 Eh    ::
         :: -> anisotropic XC          0.005305711228 Eh    ::
         :: -> dispersion             -0.008760079878 Eh    ::
         :: repulsion energy           0.252638330260 Eh    ::
         :: add. restraining           0.000331684739 Eh    ::
         :: total charge               0.000000000000 e     ::
         :::::::::::::::::::::::::::::::::::::::::::::::::::::

           -------------------------------------------------
          |                Property Printout                |
           -------------------------------------------------

    * Orbital Energies and Occupations

         #    Occupation            Energy/Eh            Energy/eV
      -------------------------------------------------------------
         1        2.0000           -0.6980056             -18.9937
       ...           ...                  ...                  ...
         8        2.0000           -0.5580308             -15.1848
         9        2.0000           -0.5493771             -14.9493
        10        2.0000           -0.5382321             -14.6460
        11        2.0000           -0.5144616             -13.9992
        12        2.0000           -0.5023498             -13.6696
        13        2.0000           -0.4822169             -13.1218
        14        2.0000           -0.4728089             -12.8658
        15        2.0000           -0.4670960             -12.7103
        16        2.0000           -0.4557408             -12.4013
        17        2.0000           -0.4520113             -12.2999
        18        2.0000           -0.4424697             -12.0402
        19        2.0000           -0.4071081             -11.0780
        20        1.0000           -0.3391836              -9.2297 (HOMO)
        21                         -0.2633665              -7.1666 (LUMO)
        22                         -0.1844664              -5.0196
        23                          0.0459914               1.2515
        24                          0.0820974               2.2340
        25                          0.1078388               2.9344
        26                          0.1370071               3.7282
        27                          0.1468584               3.9962
        28                          0.1605309               4.3683
        29                          0.1750374               4.7630
        30                          0.2099244               5.7123
        31                          0.2354260               6.4063
       ...                                ...                  ...
        35                          0.6067014              16.5092
      -------------------------------------------------------------
                  HL-Gap            0.0758171 Eh            2.0631 eV
             Fermi-level           -0.3372105 Eh           -9.1760 eV

     #   Z          covCN         q      C6AA      α(0)
     1   8 O        1.331    -0.403    21.330     6.213
     2   8 O        1.449    -0.252    18.377     5.777
     3   6 C        3.803     0.139    18.329     6.095
     4   6 C        3.050    -0.026    28.604     8.771
     5   6 C        2.952    -0.022    28.542     8.763
     6   6 C        3.000    -0.016    28.395     8.741
     7   6 C        3.844    -0.071    21.817     6.644
     8   1 H        0.805     0.302     0.714     1.327
     9   1 H        0.924     0.036     2.500     2.473
    10   1 H        0.926     0.059     2.209     2.324
    11   1 H        0.926     0.051     2.306     2.375
    12   1 H        0.926     0.050     2.323     2.383
    13   1 H        0.924     0.062     2.177     2.307
    14   1 H        0.924     0.089     1.886     2.148

 Mol. C6AA /au·bohr⁶  :       1896.861050
 Mol. C8AA /au·bohr⁸  :      43184.266594
 Mol. α(0) /au        :         66.341250


Wiberg/Mayer (AO) data.
largest (>0.10) Wiberg bond orders for each atom

 ---------------------------------------------------------------------------
     #   Z sym  total        # sym  WBO       # sym  WBO       # sym  WBO
 ---------------------------------------------------------------------------
     1   8 O    1.893 --     8 H    0.906     2 O    0.791     4 C    0.104
     2   8 O    2.018 --     3 C    1.010     1 O    0.791     4 C    0.123
     3   6 C    3.950 --     2 O    1.010     7 C    0.977     9 H    0.955
                             4 C    0.954
     4   6 C    3.800 --     5 C    1.432    10 H    0.973     3 C    0.954
                             6 C    0.162     2 O    0.123     1 O    0.104
     5   6 C    3.990 --     6 C    1.515     4 C    1.432    11 H    0.967
     6   6 C    3.839 --     5 C    1.515     7 C    1.062    12 H    0.972
                             4 C    0.162
     7   6 C    3.996 --     6 C    1.062     3 C    0.977    14 H    0.947
                            13 H    0.938
     8   1 H    0.909 --     1 O    0.906
     9   1 H    0.999 --     3 C    0.955
    10   1 H    0.997 --     4 C    0.973
    11   1 H    0.997 --     5 C    0.967
    12   1 H    0.998 --     6 C    0.972
    13   1 H    0.995 --     7 C    0.938
    14   1 H    0.992 --     7 C    0.947
 ---------------------------------------------------------------------------

Topologies differ in total number of bonds
Writing topology from bond orders to xtbtopo.mol

molecular dipole:
                 x           y           z       tot (Debye)
 q only:        0.820       0.186      -0.418
   full:        0.742       0.222      -0.276       2.091
molecular quadrupole (traceless):
                xx          xy          yy          xz          yz          zz
 q only:       -2.242      -0.913       0.520      -0.642       0.211       1.722
  q+dip:       -2.280      -2.378       0.917      -0.610       0.840       1.363
   full:       -2.470      -1.430       0.179      -1.346       0.200       2.290

           -------------------------------------------------
          |                Geometry Summary                 |
           -------------------------------------------------

      molecular mass/u    :       99.1080746
   center of mass at/Å    :       -0.1920639       0.0116592       0.1746573
  moments of inertia/u·Å² :        0.9426621E+02   0.2348695E+03   0.2744601E+03
rotational constants/cm⁻¹ :        0.1788301E+00   0.7177445E-01   0.6142108E-01

 * 11 selected distances

     #   Z          #   Z                                           value/Å
     2   8 O        3   6 C                                       1.3771906
     4   6 C        5   6 C                                       1.3849913
     5   6 C        6   6 C                                       1.3716197
     3   6 C        7   6 C                                       1.5321771 (max)
     6   6 C        7   6 C                                       1.4839313
     3   6 C        9   1 H                                       1.0942155
     4   6 C       10   1 H                                       1.0716505 (min)
     5   6 C       11   1 H                                       1.0759695
     6   6 C       12   1 H                                       1.0755918
     7   6 C       13   1 H                                       1.0935553
     7   6 C       14   1 H                                       1.0906186

 * 3 distinct bonds (by element types)

   Z      Z             #   av. dist./Å        max./Å        min./Å
   1 H    6 C           6     1.0836002     1.0942155     1.0716505
   6 C    6 C           4     1.4431798     1.5321771     1.3716197
   6 C    8 O           1     1.3771906     1.3771906     1.3771906


optimized geometry written to: xtbopt.xyz


           -------------------------------------------------
          | TOTAL ENERGY              -22.225806165821 Eh   |
          | GRADIENT NORM               0.000625319712 Eh/α |
          | HOMO-LUMO GAP               2.063088619060 eV   |
           -------------------------------------------------

------------------------------------------------------------------------
 * finished run on 2025/05/23 at 12:05:44.726     
------------------------------------------------------------------------
 total:
 * wall-time:     0 d,  0 h,  0 min,  0.205 sec
 *  cpu-time:     0 d,  0 h,  0 min,  3.069 sec
 * ratio c/w:    14.950 speedup
 SCF:
 * wall-time:     0 d,  0 h,  0 min,  0.010 sec
 *  cpu-time:     0 d,  0 h,  0 min,  0.161 sec
 * ratio c/w:    15.558 speedup
 ANC optimizer:
 * wall-time:     0 d,  0 h,  0 min,  0.187 sec
 *  cpu-time:     0 d,  0 h,  0 min,  2.800 sec
 * ratio c/w:    14.962 speedup

