
                                 *****************
                                 * O   R   C   A *
                                 *****************

                                            #,                                       
                                            ###                                      
                                            ####                                     
                                            #####                                    
                                            ######                                   
                                           ########,                                 
                                     ,,################,,,,,                         
                               ,,#################################,,                 
                          ,,##########################################,,             
                       ,#########################################, ''#####,          
                    ,#############################################,,   '####,        
                  ,##################################################,,,,####,       
                ,###########''''           ''''###############################       
              ,#####''   ,,,,##########,,,,          '''####'''          '####       
            ,##' ,,,,###########################,,,                        '##       
           ' ,,###''''                  '''############,,,                           
         ,,##''                                '''############,,,,        ,,,,,,###''
      ,#''                                            '''#######################'''  
     '                                                          ''''####''''         
             ,#######,   #######,   ,#######,      ##                                
            ,#'     '#,  ##    ##  ,#'     '#,    #''#        ######   ,####,        
            ##       ##  ##   ,#'  ##            #'  '#       #        #'  '#        
            ##       ##  #######   ##           ,######,      #####,   #    #        
            '#,     ,#'  ##    ##  '#,     ,#' ,#      #,         ##   #,  ,#        
             '#######'   ##     ##  '#######'  #'      '#     #####' # '####'        



                  #######################################################
                  #                        -***-                        #
                  #          Department of theory and spectroscopy      #
                  #    Directorship and core code : Frank Neese         #
                  #        Max Planck Institute fuer Kohlenforschung    #
                  #                Kaiser Wilhelm Platz 1               #
                  #                 D-45470 Muelheim/Ruhr               #
                  #                      Germany                        #
                  #                                                     #
                  #                  All rights reserved                #
                  #                        -***-                        #
                  #######################################################


                         Program Version 5.0.4 -  RELEASE  -


 With contributions from (in alphabetic order):
   Daniel Aravena         : Magnetic Suceptibility
   Michael Atanasov       : Ab Initio Ligand Field Theory (pilot matlab implementation)
   Alexander A. Auer      : GIAO ZORA, VPT2 properties, NMR spectrum
   Ute Becker             : Parallelization
   Giovanni Bistoni       : ED, misc. LED, open-shell LED, HFLD
   Martin Brehm           : Molecular dynamics
   Dmytro Bykov           : SCF Hessian
   Vijay G. Chilkuri      : MRCI spin determinant printing, contributions to CSF-ICE
   Dipayan Datta          : RHF DLPNO-CCSD density
   Achintya Kumar Dutta   : EOM-CC, STEOM-CC
   Dmitry Ganyushin       : Spin-Orbit,Spin-Spin,Magnetic field MRCI
   Miquel Garcia          : C-PCM and meta-GGA Hessian, CC/C-PCM, Gaussian charge scheme
   Yang Guo               : DLPNO-NEVPT2, F12-NEVPT2, CIM, IAO-localization
   Andreas Hansen         : Spin unrestricted coupled pair/coupled cluster methods
   Benjamin Helmich-Paris : MC-RPA, TRAH-SCF, COSX integrals
   Lee Huntington         : MR-EOM, pCC
   Robert Izsak           : Overlap fitted RIJCOSX, COSX-SCS-MP3, EOM
   Marcus Kettner         : VPT2
   Christian Kollmar      : KDIIS, OOCD, Brueckner-CCSD(T), CCSD density, CASPT2, CASPT2-K
   Simone Kossmann        : Meta GGA functionals, TD-DFT gradient, OOMP2, MP2 Hessian
   Martin Krupicka        : Initial AUTO-CI
   Lucas Lang             : DCDCAS
   Marvin Lechner         : AUTO-CI (C++ implementation), FIC-MRCC
   Dagmar Lenk            : GEPOL surface, SMD
   Dimitrios Liakos       : Extrapolation schemes; Compound Job, initial MDCI parallelization
   Dimitrios Manganas     : Further ROCIS development; embedding schemes
   Dimitrios Pantazis     : SARC Basis sets
   Anastasios Papadopoulos: AUTO-CI, single reference methods and gradients
   Taras Petrenko         : DFT Hessian,TD-DFT gradient, ASA, ECA, R-Raman, ABS, FL, XAS/XES, NRVS
   Peter Pinski           : DLPNO-MP2, DLPNO-MP2 Gradient
   Christoph Reimann      : Effective Core Potentials
   Marius Retegan         : Local ZFS, SOC
   Christoph Riplinger    : Optimizer, TS searches, QM/MM, DLPNO-CCSD(T), (RO)-DLPNO pert. Triples
   Tobias Risthaus        : Range-separated hybrids, TD-DFT gradient, RPA, STAB
   Michael Roemelt        : Original ROCIS implementation
   Masaaki Saitow         : Open-shell DLPNO-CCSD energy and density
   Barbara Sandhoefer     : DKH picture change effects
   Avijit Sen             : IP-ROCIS
   Kantharuban Sivalingam : CASSCF convergence, NEVPT2, FIC-MRCI
   Bernardo de Souza      : ESD, SOC TD-DFT
   Georgi Stoychev        : AutoAux, RI-MP2 NMR, DLPNO-MP2 response
   Willem Van den Heuvel  : Paramagnetic NMR
   Boris Wezisla          : Elementary symmetry handling
   Frank Wennmohs         : Technical directorship


 We gratefully acknowledge several colleagues who have allowed us to
 interface, adapt or use parts of their codes:
   Stefan Grimme, W. Hujo, H. Kruse, P. Pracht,  : VdW corrections, initial TS optimization,
                  C. Bannwarth, S. Ehlert          DFT functionals, gCP, sTDA/sTD-DF
   Ed Valeev, F. Pavosevic, A. Kumar             : LibInt (2-el integral package), F12 methods
   Garnet Chan, S. Sharma, J. Yang, R. Olivares  : DMRG
   Ulf Ekstrom                                   : XCFun DFT Library
   Mihaly Kallay                                 : mrcc  (arbitrary order and MRCC methods)
   Jiri Pittner, Ondrej Demel                    : Mk-CCSD
   Frank Weinhold                                : gennbo (NPA and NBO analysis)
   Christopher J. Cramer and Donald G. Truhlar   : smd solvation model
   Lars Goerigk                                  : TD-DFT with DH, B97 family of functionals
   V. Asgeirsson, H. Jonsson                     : NEB implementation
   FAccTs GmbH                                   : IRC, NEB, NEB-TS, DLPNO-Multilevel, CI-OPT
                                                   MM, QMMM, 2- and 3-layer-ONIOM, Crystal-QMMM,
                                                   LR-CPCM, SF, NACMEs, symmetry and pop. for TD-DFT,
                                                   nearIR, NL-DFT gradient (VV10), updates on ESD,
                                                   ML-optimized integration grids
   S Lehtola, MJT Oliveira, MAL Marques          : LibXC Library
   Liviu Ungur et al                             : ANISO software


 Your calculation uses the libint2 library for the computation of 2-el integrals
 For citations please refer to: http://libint.valeyev.net

 Your ORCA version has been built with support for libXC version: 5.1.0
 For citations please refer to: https://tddft.org/programs/libxc/

 This ORCA versions uses:
   CBLAS   interface :  Fast vector & matrix operations
   LAPACKE interface :  Fast linear algebra routines
   SCALAPACK package :  Parallel linear algebra routines
   Shared memory     :  Shared parallel matrices
   BLAS/LAPACK       :  OpenBLAS 0.3.15  USE64BITINT DYNAMIC_ARCH NO_AFFINITY SkylakeX SINGLE_THREADED
        Core in use  :  SkylakeX
   Copyright (c) 2011-2014, The OpenBLAS Project


Your calculation utilizes the atom-pairwise dispersion correction
with the Becke-Johnson damping scheme (D3BJ)
Cite in your paper:
S.Grimme, S.Ehrlich, L.Goerigk, J Comput Chem, (2011), 32, 1456–1465 
S.Grimme, J.Antony, S.Ehrlich and H.Krieg, J.Chem.Phys., 132, (2010), 154104 
   

================================================================================

----- Orbital basis set information -----
Your calculation utilizes the basis: def2-SVP
   F. Weigend and R. Ahlrichs, Phys. Chem. Chem. Phys. 7, 3297 (2005).

----- AuxJ basis set information -----
Your calculation utilizes the auxiliary basis: def2/J
   F. Weigend, Phys. Chem. Chem. Phys. 8, 1057 (2006).

================================================================================
                                        WARNINGS
                       Please study these warnings very carefully!
================================================================================


WARNING: your system is open-shell and RHF/RKS was chosen
  ===> : WILL SWITCH to UHF/UKS


WARNING: Geometry Optimization
  ===> : Switching off AutoStart
         For restart on a previous wavefunction, please use MOREAD

INFO   : the flag for use of the SHARK integral package has been found!

================================================================================
                                       INPUT FILE
================================================================================
NAME = path_opt-1_orca.inp
|  1> ! LooseOpt PBE0 RIJCOSX D3BJ def2-SVP def2/J 
|  2> %geom Constraints
|  3> { B 1 5 3.387444315176024 C }
|  4> { B 0 1 1.4266055560153312 C }
|  5>     end
|  6> end
|  7> %geom MaxIter 50 end
|  8> %output 
|  9> xyzfile=True 
| 10> end 
| 11> %scf 
| 12> maxiter 250 
| 13> end
| 14> %output
| 15> Print[P_Hirshfeld] = 1
| 16> end
| 17> % maxcore
| 18> 4000
| 19> %pal nprocs 8
| 20> end
| 21> *xyz 0 2
| 22> O   -2.58135924  -0.38940613   0.74707096 
| 23> O   -1.35599755   0.21692513   1.15456884 
| 24> C   -0.62180302   0.48700608  -0.02399779 
| 25> C    0.58041863   1.28610268   0.38274866 
| 26> C    1.74186518   0.59366293   0.06719868 
| 27> C    1.44889011  -0.61504371  -0.55283037 
| 28> C   -0.03338686  -0.77653912  -0.69196366 
| 29> H   -2.58594131  -1.17020509   1.31692077 
| 30> H   -1.28414955   1.04646812  -0.71179936 
| 31> H    0.51178548   2.25427826   0.87901556 
| 32> H    2.75174454   0.95499832   0.27336628 
| 33> H    2.18294599  -1.34227180  -0.90358870 
| 34> H   -0.33739950  -0.86676909  -1.74925865 
| 35> H   -0.41761288  -1.67910658  -0.18745124 
| 36> *
| 37> 
| 38>                          ****END OF INPUT****
================================================================================

                       *****************************
                       * Geometry Optimization Run *
                       *****************************

Geometry optimization settings:
Update method            Update   .... BFGS
Choice of coordinates    CoordSys .... Z-matrix Internals
Initial Hessian          InHess   .... Almoef's Model

Convergence Tolerances:
Energy Change            TolE     ....  3.0000e-05 Eh
Max. Gradient            TolMAXG  ....  2.0000e-03 Eh/bohr
RMS Gradient             TolRMSG  ....  5.0000e-04 Eh/bohr
Max. Displacement        TolMAXD  ....  1.0000e-02 bohr
RMS Displacement         TolRMSD  ....  7.0000e-03 bohr
Strict Convergence                ....  False
------------------------------------------------------------------------------
                        ORCA OPTIMIZATION COORDINATE SETUP
------------------------------------------------------------------------------

The optimization will be done in new redundant internal coordinates
Making redundant internal coordinates   ...  (new redundants) done
Evaluating the initial hessian          ...  (Almloef) done
Evaluating the coordinates              ...  done
Calculating the B-matrix                .... done
Calculating the G-matrix                .... done
Diagonalizing the G-matrix              .... done
Imposing constraints:
 Iter   0:  RMS(Cart)=    0.0000000022 RMS(Int)=    0.0000000004
CONVERGED
The first mode is                       ....   35
The number of degrees of freedom        ....   36
Storing new coordinates                 .... done

    -----------------------------------------------------------------
                    Redundant Internal Coordinates


    -----------------------------------------------------------------
         Definition                    Initial Value    Approx d2E/dq
    -----------------------------------------------------------------
      1. B(O   1,O   0)                  1.4266         0.438138 C 
      2. B(C   2,O   1)                  1.4146         0.511302   
      3. B(C   3,C   2)                  1.4998         0.417440   
      4. B(C   4,C   3)                  1.3885         0.628190   
      5. B(C   5,O   1)                  3.3874         0.000364 C 
      6. B(C   5,C   4)                  1.3897         0.625505   
      7. B(C   6,C   2)                  1.5456         0.352734   
      8. B(C   6,C   5)                  1.4975         0.420909   
      9. B(H   7,O   0)                  0.9666         0.507423   
     10. B(H   8,C   2)                  1.1067         0.338679   
     11. B(H   9,C   3)                  1.0901         0.359945   
     12. B(H  10,C   4)                  1.0922         0.357187   
     13. B(H  11,C   5)                  1.0912         0.358508   
     14. B(H  12,C   6)                  1.1038         0.342263   
     15. B(H  13,C   6)                  1.1031         0.343203   
     16. A(O   1,O   0,H   7)          100.3107         0.345271   
     17. A(O   0,O   1,C   2)          106.7963         0.386845   
     18. A(O   1,C   2,C   3)          106.9669         0.388559   
     19. A(C   3,C   2,C   6)          104.3361         0.366701   
     20. A(O   1,C   2,C   6)          113.6765         0.377354   
     21. A(C   3,C   2,H   8)          112.2688         0.326981   
     22. A(C   6,C   2,H   8)          111.8713         0.318079   
     23. A(O   1,C   2,H   8)          107.6795         0.336110   
     24. A(C   2,C   3,C   4)          110.0700         0.405452   
     25. A(C   2,C   3,H   9)          123.1070         0.330283   
     26. A(C   4,C   3,H   9)          126.7999         0.353668   
     27. A(C   5,C   4,H  10)          124.5337         0.352952   
     28. A(C   3,C   4,C   5)          111.0260         0.435786   
     29. A(C   3,C   4,H  10)          124.4391         0.353208   
     30. A(C   4,C   5,C   6)          110.1161         0.405738   
     31. A(C   4,C   5,H  11)          125.5383         0.353173   
     32. A(C   6,C   5,H  11)          124.3410         0.330517   
     33. A(H  12,C   6,H  13)          105.9780         0.286373   
     34. A(C   2,C   6,H  12)          112.0812         0.318626   
     35. A(C   5,C   6,H  12)          111.7415         0.327995   
     36. A(C   2,C   6,H  13)          109.7936         0.318768   
     37. A(C   2,C   6,C   5)          104.3893         0.367222   
     38. A(C   5,C   6,H  13)          112.9868         0.328144   
     39. D(C   2,O   1,O   0,H   7)    129.2649         0.015954   
     40. D(C   3,C   2,O   1,O   0)    172.6357         0.022463   
     41. D(C   6,C   2,O   1,O   0)    -72.7536         0.022463   
     42. D(H   8,C   2,O   1,O   0)     51.7660         0.022463   
     43. D(C   4,C   3,C   2,O   1)    118.4602         0.012890   
     44. D(C   4,C   3,C   2,C   6)     -2.2912         0.012890   
     45. D(H   9,C   3,C   2,H   8)     58.0058         0.012890   
     46. D(H   9,C   3,C   2,O   1)    -59.9013         0.012890   
     47. D(C   4,C   3,C   2,H   8)   -123.6327         0.012890   
     48. D(H   9,C   3,C   2,C   6)    179.3473         0.012890   
     49. D(C   5,C   4,C   3,C   2)      1.2064         0.027351   
     50. D(C   5,C   4,C   3,H   9)    179.4923         0.027351   
     51. D(H  10,C   4,C   3,C   2)   -179.1736         0.027351   
     52. D(H  10,C   4,C   3,H   9)     -0.8876         0.027351   
     53. D(C   6,C   5,C   4,C   3)      0.4814         0.029455   
     54. D(C   6,C   5,C   4,H  10)   -179.1382         0.029455   
     55. D(H  11,C   5,C   4,C   3)    179.7199         0.029455   
     56. D(H  11,C   5,C   4,H  10)      0.1003         0.029455   
     57. D(H  12,C   6,C   5,H  11)    -59.7777         0.014016   
     58. D(C   5,C   6,C   2,C   3)      2.4246         0.010012   
     59. D(C   5,C   6,C   2,H   8)    124.0294         0.010012   
     60. D(H  13,C   6,C   2,H   8)   -114.5836         0.010012   
     61. D(H  12,C   6,C   2,C   3)   -118.6909         0.010012   
     62. D(H  12,C   6,C   2,H   8)      2.9139         0.010012   
     63. D(H  13,C   6,C   2,O   1)      7.6475         0.010012   
     64. D(H  12,C   6,C   2,O   1)    125.1451         0.010012   
     65. D(H  13,C   6,C   2,C   3)    123.8116         0.010012   
     66. D(C   2,C   6,C   5,C   4)     -1.8691         0.014016   
     67. D(C   2,C   6,C   5,H  11)    178.8814         0.014016   
     68. D(C   5,C   6,C   2,O   1)   -113.7394         0.010012   
     69. D(H  12,C   6,C   5,C   4)    119.4718         0.014016   
     70. D(H  13,C   6,C   5,C   4)   -121.1168         0.014016   
     71. D(H  13,C   6,C   5,H  11)     59.6337         0.014016   
    -----------------------------------------------------------------

Number of atoms                         .... 14
Number of degrees of freedom            .... 71

         *************************************************************
         *                GEOMETRY OPTIMIZATION CYCLE   1            *
         *************************************************************
---------------------------------
CARTESIAN COORDINATES (ANGSTROEM)
---------------------------------
  O     -2.581359   -0.389406    0.747071
  O     -1.355998    0.216925    1.154569
  C     -0.621803    0.487006   -0.023998
  C      0.580419    1.286103    0.382749
  C      1.741865    0.593663    0.067199
  C      1.448890   -0.615044   -0.552830
  C     -0.033387   -0.776539   -0.691964
  H     -2.585941   -1.170205    1.316921
  H     -1.284150    1.046468   -0.711799
  H      0.511785    2.254278    0.879016
  H      2.751745    0.954998    0.273366
  H      2.182946   -1.342272   -0.903589
  H     -0.337400   -0.866769   -1.749259
  H     -0.417613   -1.679107   -0.187451

----------------------------
CARTESIAN COORDINATES (A.U.)
----------------------------
  NO LB      ZA    FRAG     MASS         X           Y           Z
   0 O     8.0000    0    15.999   -4.878062   -0.735871    1.411760
   1 O     8.0000    0    15.999   -2.562464    0.409929    2.181819
   2 C     6.0000    0    12.011   -1.175037    0.920308   -0.045349
   3 C     6.0000    0    12.011    1.096832    2.430382    0.723290
   4 C     6.0000    0    12.011    3.291648    1.121860    0.126987
   5 C     6.0000    0    12.011    2.738006   -1.162264   -1.044698
   6 C     6.0000    0    12.011   -0.063092   -1.467446   -1.307622
   7 H     1.0000    0     1.008   -4.886721   -2.211367    2.488620
   8 H     1.0000    0     1.008   -2.426691    1.977538   -1.345106
   9 H     1.0000    0     1.008    0.967134    4.259969    1.661099
  10 H     1.0000    0     1.008    5.200044    1.804685    0.516587
  11 H     1.0000    0     1.008    4.125170   -2.536526   -1.707535
  12 H     1.0000    0     1.008   -0.637593   -1.637956   -3.305620
  13 H     1.0000    0     1.008   -0.789174   -3.173052   -0.354232

--------------------------------
INTERNAL COORDINATES (ANGSTROEM)
--------------------------------
 O      0   0   0     0.000000000000     0.00000000     0.00000000
 O      1   0   0     1.426605548278     0.00000000     0.00000000
 C      2   1   0     1.414568707693   106.79625366     0.00000000
 C      3   2   1     1.499778299099   106.96694520   172.63570587
 C      4   3   2     1.388525363746   110.07001941   118.46023887
 C      5   4   3     1.389691388786   111.02599373     1.20640038
 C      6   5   4     1.497525911505   110.11605647     0.48143309
 H      1   2   3     0.966642031602   100.31071139   129.26493001
 H      3   2   1     1.106694040690   107.67951123    51.76600527
 H      4   3   2     1.090117103353   123.10701598   300.09873084
 H      5   4   3     1.092210906881   124.43910870   180.82642206
 H      6   5   4     1.091205817393   125.53829286   179.71989334
 H      7   6   5     1.103828713454   111.74147915   119.47180276
 H      7   6   5     1.103082243638   112.98677141   238.88317848

---------------------------
INTERNAL COORDINATES (A.U.)
---------------------------
 O      0   0   0     0.000000000000     0.00000000     0.00000000
 O      1   0   0     2.695893787378     0.00000000     0.00000000
 C      2   1   0     2.673147455155   106.79625366     0.00000000
 C      3   2   1     2.834170246895   106.96694520   172.63570587
 C      4   3   2     2.623932667483   110.07001941   118.46023887
 C      5   4   3     2.626136135474   111.02599373     1.20640038
 C      6   5   4     2.829913851196   110.11605647     0.48143309
 H      1   2   3     1.826688709265   100.31071139   129.26493001
 H      3   2   1     2.091348650947   107.67951123    51.76600527
 H      4   3   2     2.060022779241   123.10701598   300.09873084
 H      5   4   3     2.063979494487   124.43910870   180.82642206
 H      6   5   4     2.062080150614   125.53829286   179.71989334
 H      7   6   5     2.085933967186   111.74147915   119.47180276
 H      7   6   5     2.084523343668   112.98677141   238.88317848

---------------------
BASIS SET INFORMATION
---------------------
There are 3 groups of distinct atoms

 Group   1 Type O   : 7s4p1d contracted to 3s2p1d pattern {511/31/1}
 Group   2 Type C   : 7s4p1d contracted to 3s2p1d pattern {511/31/1}
 Group   3 Type H   : 4s1p contracted to 2s1p pattern {31/1}

Atom   0O    basis set group =>   1
Atom   1O    basis set group =>   1
Atom   2C    basis set group =>   2
Atom   3C    basis set group =>   2
Atom   4C    basis set group =>   2
Atom   5C    basis set group =>   2
Atom   6C    basis set group =>   2
Atom   7H    basis set group =>   3
Atom   8H    basis set group =>   3
Atom   9H    basis set group =>   3
Atom  10H    basis set group =>   3
Atom  11H    basis set group =>   3
Atom  12H    basis set group =>   3
Atom  13H    basis set group =>   3
---------------------------------
AUXILIARY/J BASIS SET INFORMATION
---------------------------------
There are 3 groups of distinct atoms

 Group   1 Type O   : 12s5p4d2f1g contracted to 6s4p3d1f1g pattern {711111/2111/211/2/1}
 Group   2 Type C   : 12s5p4d2f1g contracted to 6s4p3d1f1g pattern {711111/2111/211/2/1}
 Group   3 Type H   : 5s2p1d contracted to 3s1p1d pattern {311/2/1}

Atom   0O    basis set group =>   1
Atom   1O    basis set group =>   1
Atom   2C    basis set group =>   2
Atom   3C    basis set group =>   2
Atom   4C    basis set group =>   2
Atom   5C    basis set group =>   2
Atom   6C    basis set group =>   2
Atom   7H    basis set group =>   3
Atom   8H    basis set group =>   3
Atom   9H    basis set group =>   3
Atom  10H    basis set group =>   3
Atom  11H    basis set group =>   3
Atom  12H    basis set group =>   3
Atom  13H    basis set group =>   3


           ************************************************************
           *        Program running with 8 parallel MPI-processes     *
           *              working on a common directory               *
           ************************************************************
------------------------------------------------------------------------------
                           ORCA GTO INTEGRAL CALCULATION
                           -- RI-GTO INTEGRALS CHOSEN --
------------------------------------------------------------------------------
------------------------------------------------------------------------------
                   ___                                                        
                  /   \      - P O W E R E D   B Y -                         
                 /     \                                                     
                 |  |  |   _    _      __       _____    __    __             
                 |  |  |  | |  | |    /  \     |  _  \  |  |  /  |          
                  \  \/   | |  | |   /    \    | | | |  |  | /  /          
                 / \  \   | |__| |  /  /\  \   | |_| |  |  |/  /          
                |  |  |   |  __  | /  /__\  \  |    /   |      \           
                |  |  |   | |  | | |   __   |  |    \   |  |\   \          
                \     /   | |  | | |  |  |  |  | |\  \  |  | \   \       
                 \___/    |_|  |_| |__|  |__|  |_| \__\ |__|  \__/        
                                                                              
                      - O R C A' S   B I G   F R I E N D -                    
                                      &                                       
                       - I N T E G R A L  F E E D E R -                       
                                                                              
 v1 FN, 2020, v2 2021                                                         
------------------------------------------------------------------------------


Reading SHARK input file path_opt-1_orca.SHARKINP.tmp ... ok
----------------------
SHARK INTEGRAL PACKAGE
----------------------

Number of atoms                             ...     14
Number of basis functions                   ...    133
Number of shells                            ...     63
Maximum angular momentum                    ...      2
Integral batch strategy                     ... SHARK/LIBINT Hybrid
RI-J (if used) integral strategy            ... SPLIT-RIJ (Revised 2003 algorithm where possible)
Printlevel                                  ...      1
Contraction scheme used                     ... SEGMENTED contraction
Coulomb Range Separation                    ... NOT USED
Exchange Range Separation                   ... NOT USED
Finite Nucleus Model                        ... NOT USED
Auxiliary Coulomb fitting basis             ... AVAILABLE
   # of basis functions in Aux-J            ...    420
   # of shells in Aux-J                     ...    140
   Maximum angular momentum in Aux-J        ...      4
Auxiliary J/K fitting basis                 ... NOT available
Auxiliary Correlation fitting basis         ... NOT available
Auxiliary 'external' fitting basis          ... NOT available
Integral threshold                          ...     2.500000e-11
Primitive cut-off                           ...     2.500000e-12
Primitive pair pre-selection threshold      ...     2.500000e-12

Calculating pre-screening integrals         ... done (  0.0 sec) Dimension = 63
Organizing shell pair data                  ... done (  0.0 sec)
Shell pair information
Total number of shell pairs                 ...      2016
Shell pairs after pre-screening             ...      1940
Total number of primitive shell pairs       ...      7252
Primitive shell pairs kept                  ...      5312
          la=0 lb=0:    602 shell pairs
          la=1 lb=0:    709 shell pairs
          la=1 lb=1:    225 shell pairs
          la=2 lb=0:    235 shell pairs
          la=2 lb=1:    142 shell pairs
          la=2 lb=2:     27 shell pairs

Calculating one electron integrals          ... done (  0.0 sec)
Calculating RI/J V-Matrix + Cholesky decomp.... done (  0.0 sec)
Calculating Nuclear repulsion               ... done (  0.0 sec) ENN=    298.041804002604 Eh

SHARK setup successfully completed in   0.1 seconds

Maximum memory used throughout the entire GTOINT-calculation: 10.7 MB


           ************************************************************
           *        Program running with 8 parallel MPI-processes     *
           *              working on a common directory               *
           ************************************************************
-------------------------------------------------------------------------------
                                 ORCA SCF
-------------------------------------------------------------------------------

------------
SCF SETTINGS
------------
Hamiltonian:
 Density Functional     Method          .... DFT(GTOs)
 Exchange Functional    Exchange        .... PBE
   PBE kappa parameter   XKappa         ....  0.804000
   PBE mue parameter    XMuePBE         ....  0.219520
 Correlation Functional Correlation     .... PBE
   PBE beta parameter  CBetaPBE         ....  0.066725
 LDA part of GGA corr.  LDAOpt          .... PW91-LDA
 Gradients option       PostSCFGGA      .... off
 Hybrid DFT is turned on
   Fraction HF Exchange ScalHFX         ....  0.250000
   Scaling of DF-GGA-X  ScalDFX         ....  0.750000
   Scaling of DF-GGA-C  ScalDFC         ....  1.000000
   Scaling of DF-LDA-C  ScalLDAC        ....  1.000000
   Perturbative correction              ....  0.000000
   Density functional embedding theory  .... OFF
   NL short-range parameter             ....  6.900000
 RI-approximation to the Coulomb term is turned on
   Number of AuxJ basis functions       .... 420
   RIJ-COSX (HFX calculated with COS-X)).... on


General Settings:
 Integral files         IntName         .... path_opt-1_orca
 Hartree-Fock type      HFTyp           .... UHF
 Total Charge           Charge          ....    0
 Multiplicity           Mult            ....    2
 Number of Electrons    NEL             ....   53
 Basis Dimension        Dim             ....  133
 Nuclear Repulsion      ENuc            ....    298.0418040026 Eh

Convergence Acceleration:
 DIIS                   CNVDIIS         .... on
   Start iteration      DIISMaxIt       ....    12
   Startup error        DIISStart       ....  0.200000
   # of expansion vecs  DIISMaxEq       ....     5
   Bias factor          DIISBfac        ....   1.050
   Max. coefficient     DIISMaxC        ....  10.000
 Trust-Rad. Augm. Hess. CNVTRAH         .... auto
   Auto Start mean grad. ratio tolernc. ....  1.125000
   Auto Start start iteration           ....    20
   Auto Start num. interpolation iter.  ....    10
   Max. Number of Micro iterations      ....    16
   Max. Number of Macro iterations      .... Maxiter - #DIIS iter
   Number of Davidson start vectors     ....     2
   Converg. threshold I  (grad. norm)   ....   1.000e-05
   Converg. threshold II (energy diff.) ....   1.000e-08
   Grad. Scal. Fac. for Micro threshold ....   0.100
   Minimum threshold for Micro iter.    ....   0.010
   NR start threshold (gradient norm)   ....   0.001
   Initial trust radius                 ....   0.400
   Minimum AH scaling param. (alpha)    ....   1.000
   Maximum AH scaling param. (alpha)    .... 1000.000
   Orbital update algorithm             .... Taylor
   White noise on init. David. guess    .... on
   Maximum white noise                  ....   0.010
   Quad. conv. algorithm                .... NR
 SOSCF                  CNVSOSCF        .... off
 Level Shifting         CNVShift        .... on
   Level shift para.    LevelShift      ....    0.2500
   Turn off err/grad.   ShiftErr        ....    0.0010
 Zerner damping         CNVZerner       .... off
 Static damping         CNVDamp         .... on
   Fraction old density DampFac         ....    0.7000
   Max. Damping (<1)    DampMax         ....    0.9800
   Min. Damping (>=0)   DampMin         ....    0.0000
   Turn off err/grad.   DampErr         ....    0.1000
 Fernandez-Rico         CNVRico         .... off

SCF Procedure:
 Maximum # iterations   MaxIter         ....   250
 SCF integral mode      SCFMode         .... Direct
   Integral package                     .... SHARK and LIBINT hybrid scheme
 Reset frequency        DirectResetFreq ....    20
 Integral Threshold     Thresh          ....  2.500e-11 Eh
 Primitive CutOff       TCut            ....  2.500e-12 Eh

Convergence Tolerance:
 Convergence Check Mode ConvCheckMode   .... Total+1el-Energy
 Convergence forced     ConvForced      .... 0
 Energy Change          TolE            ....  1.000e-08 Eh
 1-El. energy change                    ....  1.000e-05 Eh
 DIIS Error             TolErr          ....  5.000e-07


Diagonalization of the overlap matrix:
Smallest eigenvalue                        ... 9.458e-04
Time for diagonalization                   ...    0.003 sec
Threshold for overlap eigenvalues          ... 1.000e-08
Number of eigenvalues below threshold      ... 0
Time for construction of square roots      ...    0.001 sec
Total time needed                          ...    0.004 sec

Time for model grid setup =    0.042 sec

------------------------------
INITIAL GUESS: MODEL POTENTIAL
------------------------------
Loading Hartree-Fock densities                     ... done
Calculating cut-offs                               ... done
Initializing the effective Hamiltonian             ... done
Setting up the integral package (SHARK)            ... done
Starting the Coulomb interaction                   ... done (   0.0 sec)
Reading the grid                                   ... done
Mapping shells                                     ... done
Starting the XC term evaluation                    ... done (   0.0 sec)
  promolecular density results
     # of electrons  =     52.998425619
     EX              =    -43.881872447
     EC              =     -1.759345259
     EX+EC           =    -45.641217707
Transforming the Hamiltonian                       ... done (   0.0 sec)
Diagonalizing the Hamiltonian                      ... done (   0.0 sec)
Back transforming the eigenvectors                 ... done (   0.0 sec)
Now organizing SCF variables                       ... done
                      ------------------
                      INITIAL GUESS DONE (   0.1 sec)
                      ------------------
-------------------
DFT GRID GENERATION
-------------------

General Integration Accuracy     IntAcc      ... 4.388
Radial Grid Type                 RadialGrid  ... OptM3 with GC (2021)
Angular Grid (max. ang.)         AngularGrid ... 4 (Lebedev-302)
Angular grid pruning method      GridPruning ... 4 (adaptive)
Weight generation scheme         WeightScheme... Becke
Basis function cutoff            BFCut       ... 1.0000e-11
Integration weight cutoff        WCut        ... 1.0000e-14
Angular grids for H and He will be reduced by one unit
Partially contracted basis set               ... off
Rotationally invariant grid construction     ... off

Total number of grid points                  ...    64874
Total number of batches                      ...     1021
Average number of points per batch           ...       63
Average number of grid points per atom       ...     4634
Time for grid setup =    0.245 sec

--------------------
COSX GRID GENERATION
--------------------

GRIDX 1
-------
General Integration Accuracy     IntAcc      ... 3.816
Radial Grid Type                 RadialGrid  ... OptM3 with GC (2021)
Angular Grid (max. ang.)         AngularGrid ... 1 (Lebedev-50)
Angular grid pruning method      GridPruning ... 4 (adaptive)
Weight generation scheme         WeightScheme... Becke
Basis function cutoff            BFCut       ... 1.0000e-11
Integration weight cutoff        WCut        ... 1.0000e-14
Angular grids for H and He will be reduced by one unit
Partially contracted basis set               ... on
Rotationally invariant grid construction     ... off

Total number of grid points                  ...     8289
Total number of batches                      ...      135
Average number of points per batch           ...       61
Average number of grid points per atom       ...      592
UseSFitting                                  ... on

GRIDX 2
-------
General Integration Accuracy     IntAcc      ... 4.020
Radial Grid Type                 RadialGrid  ... OptM3 with GC (2021)
Angular Grid (max. ang.)         AngularGrid ... 2 (Lebedev-110)
Angular grid pruning method      GridPruning ... 4 (adaptive)
Weight generation scheme         WeightScheme... Becke
Basis function cutoff            BFCut       ... 1.0000e-11
Integration weight cutoff        WCut        ... 1.0000e-14
Angular grids for H and He will be reduced by one unit
Partially contracted basis set               ... on
Rotationally invariant grid construction     ... off

Total number of grid points                  ...    18044
Total number of batches                      ...      288
Average number of points per batch           ...       62
Average number of grid points per atom       ...     1289
UseSFitting                                  ... on

GRIDX 3
-------
General Integration Accuracy     IntAcc      ... 4.338
Radial Grid Type                 RadialGrid  ... OptM3 with GC (2021)
Angular Grid (max. ang.)         AngularGrid ... 3 (Lebedev-194)
Angular grid pruning method      GridPruning ... 4 (adaptive)
Weight generation scheme         WeightScheme... Becke
Basis function cutoff            BFCut       ... 1.0000e-11
Integration weight cutoff        WCut        ... 1.0000e-14
Angular grids for H and He will be reduced by one unit
Partially contracted basis set               ... on
Rotationally invariant grid construction     ... off

Total number of grid points                  ...    39644
Total number of batches                      ...      626
Average number of points per batch           ...       63
Average number of grid points per atom       ...     2832
UseSFitting                                  ... on

Time for X-Grid setup             =    0.178 sec

--------------
SCF ITERATIONS
--------------
ITER       Energy         Delta-E        Max-DP      RMS-DP      [F,P]     Damp
               ***  Starting incremental Fock matrix formation  ***
  0   -344.2617934009   0.000000000000 0.03120510  0.00100269  0.0674402 0.7000
  1   -344.3152074098  -0.053414008873 0.01992266  0.00071910  0.0354204 0.7000
                               ***Turning on DIIS***
  2   -344.3398526049  -0.024645195150 0.03108344  0.00133575  0.0167632 0.0000
  3   -344.3778173157  -0.037964710812 0.01465638  0.00050970  0.0179567 0.0000
  4   -344.3862292316  -0.008411915841 0.00487681  0.00013799  0.0037156 0.0000
  5   -344.3866812328  -0.000452001188 0.00357310  0.00008539  0.0027570 0.0000
  6   -344.3868506264  -0.000169393615 0.00289585  0.00006162  0.0019881 0.0000
  7   -344.3869593220  -0.000108695587 0.00238880  0.00004638  0.0010467 0.0000
  8   -344.3870003349  -0.000041012951 0.00184192  0.00003702  0.0005800 0.0000
               *** Restarting incremental Fock matrix formation ***
                                   *** Resetting DIIS ***
  9   -344.3869474517   0.000052883227 0.00054474  0.00001334  0.0002107 0.0000
 10   -344.3869475036  -0.000000051928 0.00027031  0.00000659  0.0002354 0.0000
 11   -344.3869484139  -0.000000910259 0.00008227  0.00000221  0.0000595 0.0000
 12   -344.3869484801  -0.000000066194 0.00008576  0.00000159  0.0000396 0.0000
 13   -344.3869485167  -0.000000036612 0.00003257  0.00000056  0.0000105 0.0000
 14   -344.3869485227  -0.000000005971 0.00000567  0.00000017  0.0000091 0.0000
                 **** Energy Check signals convergence ****

               *****************************************************
               *                     SUCCESS                       *
               *           SCF CONVERGED AFTER  15 CYCLES          *
               *****************************************************

Old exchange energy                            =    -11.183558394 Eh
New exchange energy                            =    -11.183500756 Eh
Exchange energy change after final integration =      0.000057638 Eh
Total energy after final integration           =   -344.386890881 Eh
Final COS-X integration done in                =     0.664 sec

----------------
TOTAL SCF ENERGY
----------------

Total Energy       :         -344.38689088 Eh           -9371.24373 eV

Components:
Nuclear Repulsion  :          298.04180400 Eh            8110.12980 eV
Electronic Energy  :         -642.42869488 Eh          -17481.37352 eV
One Electron Energy:        -1059.22188471 Eh          -28822.89281 eV
Two Electron Energy:          416.79318983 Eh           11341.51929 eV
Max COSX asymmetry :            0.00000051 Eh               0.00001 eV

Virial components:
Potential Energy   :         -685.92927079 Eh          -18665.08437 eV
Kinetic Energy     :          341.54237991 Eh            9293.84065 eV
Virial Ratio       :            2.00832843


DFT components:
N(Alpha)           :       27.000012996697 electrons
N(Beta)            :       26.000007443782 electrons
N(Total)           :       53.000020440479 electrons
E(X)               :      -33.475837391800 Eh       
E(C)               :       -1.770919061445 Eh       
E(XC)              :      -35.246756453245 Eh       
DFET-embed. en.    :        0.000000000000 Eh       

---------------
SCF CONVERGENCE
---------------

  Last Energy change         ...    4.2339e-09  Tolerance :   1.0000e-08
  Last MAX-Density change    ...    0.0000e+00  Tolerance :   1.0000e-07
  Last RMS-Density change    ...    0.0000e+00  Tolerance :   5.0000e-09
  Last DIIS Error            ...    3.7936e-06  Tolerance :   5.0000e-07

             **** THE GBW FILE WAS UPDATED (path_opt-1_orca.gbw) ****
             **** DENSITY path_opt-1_orca.scfp WAS UPDATED ****
             **** ENERGY FILE WAS UPDATED (path_opt-1_orca.en.tmp) ****
----------------------
UHF SPIN CONTAMINATION
----------------------

Warning: in a DFT calculation there is little theoretical justification to 
         calculate <S**2> as in Hartree-Fock theory. We will do it anyways
         but you should keep in mind that the values have only limited relevance

Expectation value of <S**2>     :     0.786883
Ideal value S*(S+1) for S=0.5   :     0.750000
Deviation                       :     0.036883

             **** THE GBW FILE WAS UPDATED (path_opt-1_orca.gbw) ****
             **** DENSITY path_opt-1_orca.scfp WAS UPDATED ****
----------------
ORBITAL ENERGIES
----------------
                 SPIN UP ORBITALS
  NO   OCC          E(Eh)            E(eV) 
   0   1.0000     -19.257641      -524.0271 
   1   1.0000     -19.254527      -523.9423 
   2   1.0000     -10.285344      -279.8784 
   3   1.0000     -10.247217      -278.8409 
   4   1.0000     -10.243414      -278.7375 
   5   1.0000     -10.240229      -278.6508 
   6   1.0000     -10.237430      -278.5746 
   7   1.0000      -1.144062       -31.1315 
   8   1.0000      -0.933467       -25.4009 
   9   1.0000      -0.861962       -23.4552 
  10   1.0000      -0.733368       -19.9559 
  11   1.0000      -0.709788       -19.3143 
  12   1.0000      -0.587418       -15.9844 
  13   1.0000      -0.563018       -15.3205 
  14   1.0000      -0.547382       -14.8950 
  15   1.0000      -0.532709       -14.4958 
  16   1.0000      -0.483587       -13.1591 
  17   1.0000      -0.453126       -12.3302 
  18   1.0000      -0.421581       -11.4718 
  19   1.0000      -0.404099       -10.9961 
  20   1.0000      -0.394238       -10.7278 
  21   1.0000      -0.387437       -10.5427 
  22   1.0000      -0.361924        -9.8485 
  23   1.0000      -0.334036        -9.0896 
  24   1.0000      -0.320783        -8.7290 
  25   1.0000      -0.261736        -7.1222 
  26   1.0000      -0.200423        -5.4538 
  27   0.0000       0.024678         0.6715 
  28   0.0000       0.061340         1.6691 
  29   0.0000       0.080260         2.1840 
  30   0.0000       0.096447         2.6245 
  31   0.0000       0.113567         3.0903 
  32   0.0000       0.122948         3.3456 
  33   0.0000       0.135518         3.6876 
  34   0.0000       0.145298         3.9538 
  35   0.0000       0.160906         4.3785 
  36   0.0000       0.195089         5.3086 
  37   0.0000       0.207577         5.6484 
  38   0.0000       0.250401         6.8137 
  39   0.0000       0.297287         8.0896 
  40   0.0000       0.351141         9.5550 
  41   0.0000       0.388790        10.5795 
  42   0.0000       0.411025        11.1846 
  43   0.0000       0.449770        12.2389 
  44   0.0000       0.468307        12.7433 
  45   0.0000       0.491131        13.3644 
  46   0.0000       0.503534        13.7019 
  47   0.0000       0.534204        14.5364 
  48   0.0000       0.550042        14.9674 
  49   0.0000       0.563667        15.3382 
  50   0.0000       0.597042        16.2463 
  51   0.0000       0.607865        16.5408 
  52   0.0000       0.620220        16.8770 
  53   0.0000       0.632833        17.2203 
  54   0.0000       0.655323        17.8322 
  55   0.0000       0.659207        17.9379 
  56   0.0000       0.669378        18.2147 
  57   0.0000       0.681784        18.5523 
  58   0.0000       0.703335        19.1387 
  59   0.0000       0.710281        19.3277 
  60   0.0000       0.727385        19.7932 
  61   0.0000       0.747300        20.3351 
  62   0.0000       0.777052        21.1447 
  63   0.0000       0.795241        21.6396 
  64   0.0000       0.797780        21.7087 
  65   0.0000       0.830575        22.6011 
  66   0.0000       0.921223        25.0678 
  67   0.0000       0.966619        26.3030 
  68   0.0000       1.024081        27.8667 
  69   0.0000       1.048922        28.5426 
  70   0.0000       1.067155        29.0388 
  71   0.0000       1.092994        29.7419 
  72   0.0000       1.159758        31.5586 
  73   0.0000       1.189050        32.3557 
  74   0.0000       1.205057        32.7913 
  75   0.0000       1.244048        33.8523 
  76   0.0000       1.275521        34.7087 
  77   0.0000       1.292666        35.1752 
  78   0.0000       1.371604        37.3232 
  79   0.0000       1.452190        39.5161 
  80   0.0000       1.475709        40.1561 
  81   0.0000       1.542113        41.9630 
  82   0.0000       1.546976        42.0953 
  83   0.0000       1.577422        42.9238 
  84   0.0000       1.622824        44.1593 
  85   0.0000       1.659113        45.1468 
  86   0.0000       1.668286        45.3964 
  87   0.0000       1.711532        46.5732 
  88   0.0000       1.719596        46.7926 
  89   0.0000       1.757431        47.8221 
  90   0.0000       1.778761        48.4025 
  91   0.0000       1.800673        48.9988 
  92   0.0000       1.831752        49.8445 
  93   0.0000       1.858439        50.5707 
  94   0.0000       1.877779        51.0970 
  95   0.0000       1.887954        51.3738 
  96   0.0000       1.929066        52.4926 
  97   0.0000       1.941113        52.8204 
  98   0.0000       1.972272        53.6683 
  99   0.0000       2.030400        55.2500 
 100   0.0000       2.047436        55.7136 
 101   0.0000       2.110739        57.4361 
 102   0.0000       2.120740        57.7083 
 103   0.0000       2.143627        58.3311 
 104   0.0000       2.196386        59.7667 
 105   0.0000       2.220542        60.4240 
 106   0.0000       2.261974        61.5514 
 107   0.0000       2.281217        62.0751 
 108   0.0000       2.334283        63.5191 
 109   0.0000       2.374873        64.6236 
 110   0.0000       2.421648        65.8964 
 111   0.0000       2.459780        66.9340 
 112   0.0000       2.485568        67.6357 
 113   0.0000       2.506140        68.1955 
 114   0.0000       2.530865        68.8683 
 115   0.0000       2.631147        71.5971 
 116   0.0000       2.658645        72.3454 
 117   0.0000       2.663265        72.4711 
 118   0.0000       2.707240        73.6677 
 119   0.0000       2.719470        74.0006 
 120   0.0000       2.817821        76.6768 
 121   0.0000       2.853576        77.6497 
 122   0.0000       2.938174        79.9518 
 123   0.0000       2.971564        80.8604 
 124   0.0000       3.030152        82.4546 
 125   0.0000       3.043979        82.8309 
 126   0.0000       3.114444        84.7483 
 127   0.0000       3.131577        85.2146 
 128   0.0000       3.223390        87.7129 
 129   0.0000       3.348811        91.1258 
 130   0.0000       3.410634        92.8081 
 131   0.0000       3.600920        97.9860 
 132   0.0000       3.906916       106.3126 

                 SPIN DOWN ORBITALS
  NO   OCC          E(Eh)            E(eV) 
   0   1.0000     -19.256780      -524.0036 
   1   1.0000     -19.254309      -523.9364 
   2   1.0000     -10.286021      -279.8969 
   3   1.0000     -10.244410      -278.7646 
   4   1.0000     -10.238088      -278.5925 
   5   1.0000     -10.236900      -278.5602 
   6   1.0000     -10.233322      -278.4628 
   7   1.0000      -1.142770       -31.0964 
   8   1.0000      -0.930350       -25.3161 
   9   1.0000      -0.853000       -23.2113 
  10   1.0000      -0.727144       -19.7866 
  11   1.0000      -0.695851       -18.9351 
  12   1.0000      -0.578665       -15.7463 
  13   1.0000      -0.559049       -15.2125 
  14   1.0000      -0.541628       -14.7385 
  15   1.0000      -0.528640       -14.3850 
  16   1.0000      -0.479911       -13.0590 
  17   1.0000      -0.449983       -12.2447 
  18   1.0000      -0.414234       -11.2719 
  19   1.0000      -0.398784       -10.8515 
  20   1.0000      -0.390295       -10.6205 
  21   1.0000      -0.382314       -10.4033 
  22   1.0000      -0.358634        -9.7589 
  23   1.0000      -0.325493        -8.8571 
  24   1.0000      -0.300610        -8.1800 
  25   1.0000      -0.260892        -7.0992 
  26   0.0000      -0.062846        -1.7101 
  27   0.0000       0.037945         1.0325 
  28   0.0000       0.066903         1.8205 
  29   0.0000       0.088095         2.3972 
  30   0.0000       0.100110         2.7241 
  31   0.0000       0.117074         3.1857 
  32   0.0000       0.125968         3.4278 
  33   0.0000       0.140935         3.8350 
  34   0.0000       0.148958         4.0533 
  35   0.0000       0.165568         4.5053 
  36   0.0000       0.199227         5.4212 
  37   0.0000       0.211379         5.7519 
  38   0.0000       0.255723         6.9586 
  39   0.0000       0.304530         8.2867 
  40   0.0000       0.358758         9.7623 
  41   0.0000       0.392904        10.6915 
  42   0.0000       0.414215        11.2714 
  43   0.0000       0.468962        12.7611 
  44   0.0000       0.476897        12.9770 
  45   0.0000       0.500371        13.6158 
  46   0.0000       0.511180        13.9099 
  47   0.0000       0.544290        14.8109 
  48   0.0000       0.559810        15.2332 
  49   0.0000       0.596787        16.2394 
  50   0.0000       0.599660        16.3176 
  51   0.0000       0.611966        16.6524 
  52   0.0000       0.629775        17.1371 
  53   0.0000       0.642094        17.4723 
  54   0.0000       0.661753        18.0072 
  55   0.0000       0.668895        18.2015 
  56   0.0000       0.675099        18.3704 
  57   0.0000       0.684573        18.6282 
  58   0.0000       0.704340        19.1661 
  59   0.0000       0.711752        19.3678 
  60   0.0000       0.731922        19.9166 
  61   0.0000       0.752747        20.4833 
  62   0.0000       0.781799        21.2738 
  63   0.0000       0.802678        21.8420 
  64   0.0000       0.804829        21.9005 
  65   0.0000       0.834243        22.7009 
  66   0.0000       0.923238        25.1226 
  67   0.0000       0.967752        26.3339 
  68   0.0000       1.027496        27.9596 
  69   0.0000       1.051878        28.6231 
  70   0.0000       1.070403        29.1271 
  71   0.0000       1.098151        29.8822 
  72   0.0000       1.162250        31.6264 
  73   0.0000       1.195403        32.5286 
  74   0.0000       1.207979        32.8708 
  75   0.0000       1.246347        33.9148 
  76   0.0000       1.288257        35.0553 
  77   0.0000       1.299207        35.3532 
  78   0.0000       1.373121        37.3645 
  79   0.0000       1.454424        39.5769 
  80   0.0000       1.477746        40.2115 
  81   0.0000       1.546867        42.0924 
  82   0.0000       1.558029        42.3961 
  83   0.0000       1.580513        43.0079 
  84   0.0000       1.628215        44.3060 
  85   0.0000       1.664240        45.2863 
  86   0.0000       1.670696        45.4620 
  87   0.0000       1.717664        46.7400 
  88   0.0000       1.721792        46.8523 
  89   0.0000       1.763446        47.9858 
  90   0.0000       1.785700        48.5914 
  91   0.0000       1.807790        49.1925 
  92   0.0000       1.840817        50.0912 
  93   0.0000       1.869013        50.8584 
  94   0.0000       1.883643        51.2565 
  95   0.0000       1.900865        51.7252 
  96   0.0000       1.938129        52.7392 
  97   0.0000       1.951186        53.0945 
  98   0.0000       1.977247        53.8036 
  99   0.0000       2.033879        55.3446 
 100   0.0000       2.055465        55.9320 
 101   0.0000       2.114404        57.5358 
 102   0.0000       2.126864        57.8749 
 103   0.0000       2.151906        58.5563 
 104   0.0000       2.206900        60.0528 
 105   0.0000       2.221450        60.4487 
 106   0.0000       2.271166        61.8016 
 107   0.0000       2.295880        62.4741 
 108   0.0000       2.349129        63.9230 
 109   0.0000       2.384882        64.8959 
 110   0.0000       2.424835        65.9831 
 111   0.0000       2.462337        67.0036 
 112   0.0000       2.490488        67.7696 
 113   0.0000       2.514182        68.4144 
 114   0.0000       2.541932        69.1695 
 115   0.0000       2.638608        71.8002 
 116   0.0000       2.663573        72.4795 
 117   0.0000       2.666195        72.5508 
 118   0.0000       2.711932        73.7954 
 119   0.0000       2.720371        74.0250 
 120   0.0000       2.822360        76.8003 
 121   0.0000       2.857776        77.7640 
 122   0.0000       2.940451        80.0137 
 123   0.0000       2.971915        80.8699 
 124   0.0000       3.032778        82.5261 
 125   0.0000       3.046792        82.9074 
 126   0.0000       3.117138        84.8216 
 127   0.0000       3.132573        85.2417 
 128   0.0000       3.225051        87.7581 
 129   0.0000       3.349784        91.1523 
 130   0.0000       3.413775        92.8935 
 131   0.0000       3.601268        97.9955 
 132   0.0000       3.907701       106.3340 

                    ********************************
                    * MULLIKEN POPULATION ANALYSIS *
                    ********************************

--------------------------------------------
MULLIKEN ATOMIC CHARGES AND SPIN POPULATIONS
--------------------------------------------
   0 O :   -0.166010    0.008377
   1 O :   -0.274259    0.011538
   2 C :    0.132736   -0.049823
   3 C :   -0.064415    0.701634
   4 C :   -0.003498   -0.325593
   5 C :   -0.112266    0.708781
   6 C :    0.043556   -0.064524
   7 H :    0.192360   -0.000231
   8 H :    0.045186    0.021424
   9 H :    0.041606   -0.033943
  10 H :    0.030206    0.011191
  11 H :    0.035549   -0.035095
  12 H :    0.058150    0.024045
  13 H :    0.041099    0.022218
Sum of atomic charges         :   -0.0000000
Sum of atomic spin populations:    1.0000000

-----------------------------------------------------
MULLIKEN REDUCED ORBITAL CHARGES AND SPIN POPULATIONS
-----------------------------------------------------
CHARGE
  0 O s       :     3.777850  s :     3.777850
      pz      :     1.675893  p :     4.369098
      px      :     1.303994
      py      :     1.389211
      dz2     :     0.001888  d :     0.019062
      dxz     :     0.003755
      dyz     :     0.004112
      dx2y2   :     0.005775
      dxy     :     0.003532
  1 O s       :     3.858322  s :     3.858322
      pz      :     1.492950  p :     4.392745
      px      :     1.146482
      py      :     1.753313
      dz2     :     0.005132  d :     0.023192
      dxz     :     0.006556
      dyz     :     0.002998
      dx2y2   :     0.003906
      dxy     :     0.004601
  2 C s       :     3.051169  s :     3.051169
      pz      :     0.824594  p :     2.746430
      px      :     0.928038
      py      :     0.993797
      dz2     :     0.012063  d :     0.069665
      dxz     :     0.020709
      dyz     :     0.015996
      dx2y2   :     0.008356
      dxy     :     0.012540
  3 C s       :     3.213373  s :     3.213373
      pz      :     0.982026  p :     2.819091
      px      :     0.936076
      py      :     0.900989
      dz2     :     0.002883  d :     0.031951
      dxz     :     0.005600
      dyz     :     0.004245
      dx2y2   :     0.009335
      dxy     :     0.009888
  4 C s       :     3.168535  s :     3.168535
      pz      :     0.973711  p :     2.797100
      px      :     0.873545
      py      :     0.949844
      dz2     :     0.005135  d :     0.037862
      dxz     :     0.005792
      dyz     :     0.005753
      dx2y2   :     0.010807
      dxy     :     0.010376
  5 C s       :     3.232650  s :     3.232650
      pz      :     0.972161  p :     2.845649
      px      :     0.946840
      py      :     0.926649
      dz2     :     0.004389  d :     0.033967
      dxz     :     0.005148
      dyz     :     0.005011
      dx2y2   :     0.009525
      dxy     :     0.009893
  6 C s       :     2.960058  s :     2.960058
      pz      :     1.008429  p :     2.962753
      px      :     0.943162
      py      :     1.011162
      dz2     :     0.007048  d :     0.033633
      dxz     :     0.006019
      dyz     :     0.005427
      dx2y2   :     0.008055
      dxy     :     0.007084
  7 H s       :     0.740792  s :     0.740792
      pz      :     0.024830  p :     0.066848
      px      :     0.011510
      py      :     0.030508
  8 H s       :     0.934129  s :     0.934129
      pz      :     0.007152  p :     0.020685
      px      :     0.007240
      py      :     0.006294
  9 H s       :     0.934407  s :     0.934407
      pz      :     0.007544  p :     0.023987
      px      :     0.003103
      py      :     0.013340
 10 H s       :     0.946470  s :     0.946470
      pz      :     0.004583  p :     0.023324
      px      :     0.013869
      py      :     0.004872
 11 H s       :     0.940725  s :     0.940725
      pz      :     0.006059  p :     0.023726
      px      :     0.008594
      py      :     0.009073
 12 H s       :     0.918718  s :     0.918718
      pz      :     0.013861  p :     0.023132
      px      :     0.005023
      py      :     0.004248
 13 H s       :     0.935828  s :     0.935828
      pz      :     0.007062  p :     0.023073
      px      :     0.005408
      py      :     0.010603

SPIN
  0 O s       :     0.000093  s :     0.000093
      pz      :     0.000223  p :     0.008272
      px      :     0.006623
      py      :     0.001426
      dz2     :     0.000010  d :     0.000012
      dxz     :     0.000004
      dyz     :    -0.000001
      dx2y2   :    -0.000012
      dxy     :     0.000011
  1 O s       :     0.001332  s :     0.001332
      pz      :     0.011964  p :     0.010067
      px      :    -0.000974
      py      :    -0.000923
      dz2     :     0.000044  d :     0.000139
      dxz     :     0.000030
      dyz     :     0.000014
      dx2y2   :     0.000008
      dxy     :     0.000044
  2 C s       :    -0.016747  s :    -0.016747
      pz      :    -0.010396  p :    -0.037240
      px      :    -0.013359
      py      :    -0.013485
      dz2     :    -0.000005  d :     0.004164
      dxz     :     0.003337
      dyz     :     0.000169
      dx2y2   :     0.000050
      dxy     :     0.000613
  3 C s       :     0.097788  s :     0.097788
      pz      :     0.451543  p :     0.606591
      px      :     0.025217
      py      :     0.129831
      dz2     :    -0.000944  d :    -0.002745
      dxz     :    -0.000462
      dyz     :    -0.001054
      dx2y2   :    -0.000069
      dxy     :    -0.000215
  4 C s       :    -0.056863  s :    -0.056863
      pz      :    -0.174367  p :    -0.277538
      px      :    -0.027172
      py      :    -0.075999
      dz2     :     0.003395  d :     0.008808
      dxz     :     0.001234
      dyz     :     0.002640
      dx2y2   :     0.001207
      dxy     :     0.000332
  5 C s       :     0.095287  s :     0.095287
      pz      :     0.457391  p :     0.616016
      px      :     0.023553
      py      :     0.135072
      dz2     :    -0.001226  d :    -0.002522
      dxz     :     0.000132
      dyz     :    -0.001205
      dx2y2   :    -0.000255
      dxy     :     0.000032
  6 C s       :    -0.020418  s :    -0.020418
      pz      :    -0.011914  p :    -0.047725
      px      :    -0.029435
      py      :    -0.006377
      dz2     :     0.000410  d :     0.003619
      dxz     :     0.002494
      dyz     :     0.000128
      dx2y2   :    -0.000039
      dxy     :     0.000626
  7 H s       :    -0.000364  s :    -0.000364
      pz      :     0.000019  p :     0.000133
      px      :     0.000115
      py      :    -0.000000
  8 H s       :     0.021447  s :     0.021447
      pz      :     0.000047  p :    -0.000023
      px      :    -0.000196
      py      :     0.000126
  9 H s       :    -0.037543  s :    -0.037543
      pz      :     0.002796  p :     0.003600
      px      :    -0.000089
      py      :     0.000893
 10 H s       :     0.012298  s :     0.012298
      pz      :    -0.000806  p :    -0.001107
      px      :    -0.000074
      py      :    -0.000227
 11 H s       :    -0.038859  s :    -0.038859
      pz      :     0.002910  p :     0.003763
      px      :     0.000072
      py      :     0.000781
 12 H s       :     0.024192  s :     0.024192
      pz      :    -0.000078  p :    -0.000147
      px      :    -0.000092
      py      :     0.000023
 13 H s       :     0.022397  s :     0.022397
      pz      :    -0.000040  p :    -0.000179
      px      :    -0.000112
      py      :    -0.000027


                     *******************************
                     * LOEWDIN POPULATION ANALYSIS *
                     *******************************

-------------------------------------------
LOEWDIN ATOMIC CHARGES AND SPIN POPULATIONS
-------------------------------------------
   0 O :   -0.062857    0.006659
   1 O :   -0.097050    0.018261
   2 C :    0.041822   -0.001214
   3 C :   -0.028494    0.547873
   4 C :   -0.042312   -0.175126
   5 C :   -0.017532    0.559006
   6 C :   -0.056579   -0.010022
   7 H :    0.073279    0.000224
   8 H :    0.021960    0.018528
   9 H :    0.029291   -0.001581
  10 H :    0.034195    0.000388
  11 H :    0.025037   -0.001442
  12 H :    0.041490    0.020593
  13 H :    0.037751    0.017853

----------------------------------------------------
LOEWDIN REDUCED ORBITAL CHARGES AND SPIN POPULATIONS
----------------------------------------------------
CHARGE
  0 O s       :     3.545029  s :     3.545029
      pz      :     1.704442  p :     4.484095
      px      :     1.343632
      py      :     1.436021
      dz2     :     0.002560  d :     0.033733
      dxz     :     0.005557
      dyz     :     0.008465
      dx2y2   :     0.010675
      dxy     :     0.006476
  1 O s       :     3.571478  s :     3.571478
      pz      :     1.540550  p :     4.485804
      px      :     1.198864
      py      :     1.746390
      dz2     :     0.007993  d :     0.039769
      dxz     :     0.011788
      dyz     :     0.004789
      dx2y2   :     0.007557
      dxy     :     0.007642
  2 C s       :     2.858493  s :     2.858493
      pz      :     0.915994  p :     2.939356
      px      :     0.991283
      py      :     1.032080
      dz2     :     0.025436  d :     0.160329
      dxz     :     0.049394
      dyz     :     0.037767
      dx2y2   :     0.016406
      dxy     :     0.031325
  3 C s       :     2.895430  s :     2.895430
      pz      :     0.989504  p :     3.052640
      px      :     1.035620
      py      :     1.027516
      dz2     :     0.006131  d :     0.080424
      dxz     :     0.013186
      dyz     :     0.008896
      dx2y2   :     0.023803
      dxy     :     0.028409
  4 C s       :     2.871031  s :     2.871031
      pz      :     0.979146  p :     3.073069
      px      :     1.050433
      py      :     1.043490
      dz2     :     0.011846  d :     0.098212
      dxz     :     0.012915
      dyz     :     0.014670
      dx2y2   :     0.030069
      dxy     :     0.028712
  5 C s       :     2.892904  s :     2.892904
      pz      :     0.977194  p :     3.041689
      px      :     1.028453
      py      :     1.036043
      dz2     :     0.008525  d :     0.082939
      dxz     :     0.011001
      dyz     :     0.011846
      dx2y2   :     0.026880
      dxy     :     0.024687
  6 C s       :     2.847922  s :     2.847922
      pz      :     1.058956  p :     3.122240
      px      :     1.028094
      py      :     1.035190
      dz2     :     0.018687  d :     0.086417
      dxz     :     0.014051
      dyz     :     0.014053
      dx2y2   :     0.022597
      dxy     :     0.017029
  7 H s       :     0.747677  s :     0.747677
      pz      :     0.067753  p :     0.179044
      px      :     0.032752
      py      :     0.078539
  8 H s       :     0.911386  s :     0.911386
      pz      :     0.023233  p :     0.066654
      px      :     0.022587
      py      :     0.020834
  9 H s       :     0.896994  s :     0.896994
      pz      :     0.023406  p :     0.073714
      px      :     0.011501
      py      :     0.038807
 10 H s       :     0.898127  s :     0.898127
      pz      :     0.013878  p :     0.067678
      px      :     0.038674
      py      :     0.015126
 11 H s       :     0.901983  s :     0.901983
      pz      :     0.019482  p :     0.072980
      px      :     0.026946
      py      :     0.026553
 12 H s       :     0.891023  s :     0.891023
      pz      :     0.038948  p :     0.067487
      px      :     0.015097
      py      :     0.013442
 13 H s       :     0.894436  s :     0.894436
      pz      :     0.019147  p :     0.067814
      px      :     0.016434
      py      :     0.032233

SPIN
  0 O s       :    -0.000077  s :    -0.000077
      pz      :     0.000233  p :     0.006682
      px      :     0.005302
      py      :     0.001147
      dz2     :     0.000042  d :     0.000054
      dxz     :    -0.000010
      dyz     :    -0.000007
      dx2y2   :    -0.000007
      dxy     :     0.000037
  1 O s       :     0.007126  s :     0.007126
      pz      :     0.011128  p :     0.010968
      px      :     0.000399
      py      :    -0.000559
      dz2     :    -0.000012  d :     0.000166
      dxz     :    -0.000004
      dyz     :     0.000006
      dx2y2   :     0.000041
      dxy     :     0.000135
  2 C s       :    -0.002316  s :    -0.002316
      pz      :    -0.001724  p :    -0.009741
      px      :    -0.003002
      py      :    -0.005015
      dz2     :     0.000114  d :     0.010843
      dxz     :     0.008265
      dyz     :     0.000382
      dx2y2   :     0.000231
      dxy     :     0.001851
  3 C s       :     0.020690  s :     0.020690
      pz      :     0.407602  p :     0.532616
      px      :     0.013030
      py      :     0.111984
      dz2     :    -0.001126  d :    -0.005433
      dxz     :    -0.001396
      dyz     :    -0.001278
      dx2y2   :    -0.000620
      dxy     :    -0.001014
  4 C s       :    -0.010695  s :    -0.010695
      pz      :    -0.133919  p :    -0.186116
      px      :    -0.007690
      py      :    -0.044507
      dz2     :     0.007685  d :     0.021685
      dxz     :     0.003226
      dyz     :     0.006087
      dx2y2   :     0.003242
      dxy     :     0.001445
  5 C s       :     0.021127  s :     0.021127
      pz      :     0.416044  p :     0.543096
      px      :     0.012058
      py      :     0.114994
      dz2     :    -0.001896  d :    -0.005217
      dxz     :     0.000014
      dyz     :    -0.001831
      dx2y2   :    -0.001039
      dxy     :    -0.000466
  6 C s       :    -0.003245  s :    -0.003245
      pz      :    -0.002851  p :    -0.016297
      px      :    -0.011883
      py      :    -0.001563
      dz2     :     0.001361  d :     0.009520
      dxz     :     0.005749
      dyz     :     0.000420
      dx2y2   :     0.000398
      dxy     :     0.001593
  7 H s       :    -0.000186  s :    -0.000186
      pz      :     0.000063  p :     0.000411
      px      :     0.000329
      py      :     0.000019
  8 H s       :     0.018876  s :     0.018876
      pz      :    -0.000116  p :    -0.000348
      px      :    -0.000182
      py      :    -0.000050
  9 H s       :    -0.017015  s :    -0.017015
      pz      :     0.010701  p :     0.015433
      px      :     0.000262
      py      :     0.004471
 10 H s       :     0.005412  s :     0.005412
      pz      :    -0.003192  p :    -0.005023
      px      :    -0.000705
      py      :    -0.001127
 11 H s       :    -0.017411  s :    -0.017411
      pz      :     0.010977  p :     0.015968
      px      :     0.001185
      py      :     0.003806
 12 H s       :     0.021261  s :     0.021261
      pz      :    -0.000411  p :    -0.000668
      px      :    -0.000218
      py      :    -0.000040
 13 H s       :     0.018547  s :     0.018547
      pz      :    -0.000133  p :    -0.000694
      px      :    -0.000274
      py      :    -0.000288


                      *****************************
                      * MAYER POPULATION ANALYSIS *
                      *****************************

  NA   - Mulliken gross atomic population
  ZA   - Total nuclear charge
  QA   - Mulliken gross atomic charge
  VA   - Mayer's total valence
  BVA  - Mayer's bonded valence
  FA   - Mayer's free valence

  ATOM       NA         ZA         QA         VA         BVA        FA
  0 O      8.1660     8.0000    -0.1660     1.9796     1.9795     0.0001
  1 O      8.2743     8.0000    -0.2743     1.9150     1.9146     0.0003
  2 C      5.8673     6.0000     0.1327     3.9558     3.9539     0.0019
  3 C      6.0644     6.0000    -0.0644     3.8761     3.5520     0.3242
  4 C      6.0035     6.0000    -0.0035     3.8730     3.8260     0.0470
  5 C      6.1123     6.0000    -0.1123     3.9151     3.5819     0.3333
  6 C      5.9564     6.0000     0.0436     3.8757     3.8738     0.0019
  7 H      0.8076     1.0000     0.1924     1.0020     1.0020     0.0000
  8 H      0.9548     1.0000     0.0452     0.9834     0.9829     0.0005
  9 H      0.9584     1.0000     0.0416     0.9941     0.9927     0.0014
 10 H      0.9698     1.0000     0.0302     0.9855     0.9853     0.0002
 11 H      0.9645     1.0000     0.0355     0.9897     0.9882     0.0015
 12 H      0.9419     1.0000     0.0581     0.9760     0.9754     0.0006
 13 H      0.9589     1.0000     0.0411     1.0031     1.0026     0.0005

  Mayer bond orders larger than 0.100000
B(  0-O ,  1-O ) :   0.9291 B(  0-O ,  7-H ) :   0.9732 B(  1-O ,  2-C ) :   0.9210 
B(  2-C ,  3-C ) :   1.0253 B(  2-C ,  6-C ) :   1.0332 B(  2-C ,  8-H ) :   0.9213 
B(  3-C ,  4-C ) :   1.3988 B(  3-C ,  5-C ) :   0.1293 B(  3-C ,  9-H ) :   0.9884 
B(  4-C ,  5-C ) :   1.4116 B(  4-C , 10-H ) :   0.9953 B(  5-C ,  6-C ) :   1.0333 
B(  5-C , 11-H ) :   0.9865 B(  6-C , 12-H ) :   0.9273 B(  6-C , 13-H ) :   0.9189 



------------------
HIRSHFELD ANALYSIS
------------------

Total integrated alpha density =     27.000012997
Total integrated beta density  =     26.000007444

  ATOM     CHARGE      SPIN    
   0 O   -0.165805    0.007400
   1 O   -0.121372    0.021664
   2 C    0.059126    0.027932
   3 C   -0.031644    0.430875
   4 C   -0.046451   -0.061718
   5 C   -0.024426    0.440169
   6 C   -0.050200    0.026757
   7 H    0.171322    0.000595
   8 H    0.028113    0.019005
   9 H    0.039929    0.027230
  10 H    0.042897   -0.006018
  11 H    0.035519    0.028138
  12 H    0.033137    0.020284
  13 H    0.029836    0.017693

  TOTAL  -0.000020    1.000006

-------
TIMINGS
-------

Total SCF time: 0 days 0 hours 0 min 7 sec 

Total time                  ....       7.128 sec
Sum of individual times     ....       6.995 sec  ( 98.1%)

Fock matrix formation       ....       6.165 sec  ( 86.5%)
  Split-RI-J                ....       0.578 sec  (  9.4% of F)
  Chain of spheres X        ....       4.028 sec  ( 65.3% of F)
  XC integration            ....       1.502 sec  ( 24.4% of F)
    Basis function eval.    ....       0.391 sec  ( 26.0% of XC)
    Density eval.           ....       0.371 sec  ( 24.7% of XC)
    XC-Functional eval.     ....       0.138 sec  (  9.2% of XC)
    XC-Potential eval.      ....       0.462 sec  ( 30.8% of XC)
Diagonalization             ....       0.111 sec  (  1.6%)
Density matrix formation    ....       0.007 sec  (  0.1%)
Population analysis         ....       0.136 sec  (  1.9%)
Initial guess               ....       0.037 sec  (  0.5%)
Orbital Transformation      ....       0.000 sec  (  0.0%)
Orbital Orthonormalization  ....       0.000 sec  (  0.0%)
DIIS solution               ....       0.074 sec  (  1.0%)
Grid generation             ....       0.465 sec  (  6.5%)

Maximum memory used throughout the entire SCF-calculation: 50.7 MB


-------------------------------------------------------------------------------
                          DFT DISPERSION CORRECTION                            
                                                                               
                              DFTD3 V3.1  Rev 1                                
                          USING Becke-Johnson damping                          
-------------------------------------------------------------------------------
The PBE0 functional is recognized
Active option DFTDOPT                   ...         4   

molecular C6(AA) [au] = 1774.821432 


            DFT-D V3
 parameters
 s6 scaling factor         :     1.0000 
 a1 scaling factor         :     0.4145 
 s8 scaling factor         :     1.2177 
 a2 scaling factor         :     4.8593 
 ad hoc parameters k1-k3   :    16.0000     1.3333    -4.0000 

 Edisp/kcal,au: -6.245536130772  -0.009952894295 
 E6   /kcal   :  -3.967454253 
 E8   /kcal   :  -2.278081878 
 % E8         :  36.475361449 

-------------------------   ----------------
Dispersion correction           -0.009952894
-------------------------   ----------------


-------------------------   --------------------
FINAL SINGLE POINT ENERGY      -344.396843775212
-------------------------   --------------------



           ************************************************************
           *        Program running with 8 parallel MPI-processes     *
           *              working on a common directory               *
           ************************************************************
------------------------------------------------------------------------------
                         ORCA SCF GRADIENT CALCULATION
------------------------------------------------------------------------------

 ... reading COSX grid (gridx3)
Gradient of the Kohn-Sham DFT energy:
Kohn-Sham wavefunction type      ... UKS
Hartree-Fock exchange scaling    ...    0.250
Number of operators              ...    2
Number of atoms                  ...   14
Basis set dimensions             ...  133
Integral neglect threshold       ... 2.5e-11
Integral primitive cutoff        ... 2.5e-12
SHARK Integral package           ... ON

Nuc. rep. gradient       (SHARK) ... done (  0.0 sec)
HCore & Overlap gradient (SHARK) ... done (  0.0 sec)
RI-J gradient            (SHARK) ... done (  0.1 sec)
COSX-gradient                    ... done (  0.9 sec)
Exchange-correlation gradient    ... done
Dispersion correction            ... done

------------------
CARTESIAN GRADIENT
------------------

   1   O   :   -0.000087494   -0.000053149   -0.000022408
   2   O   :    0.000074419    0.000023282    0.000094438
   3   C   :    0.000053050    0.000085317   -0.000053093
   4   C   :   -0.000014749   -0.000052677   -0.000020977
   5   C   :   -0.000009366    0.000031551    0.000028412
   6   C   :   -0.000024070   -0.000001133   -0.000012953
   7   C   :    0.000035719   -0.000059952    0.000087214
   8   H   :    0.000016395    0.000019037    0.000004961
   9   H   :   -0.000018209   -0.000025579    0.000017572
  10   H   :    0.000022266    0.000002008   -0.000009475
  11   H   :   -0.000005669   -0.000007912    0.000006317
  12   H   :    0.000017866    0.000024736    0.000046425
  13   H   :    0.000041244    0.000030616    0.000009923
  14   H   :   -0.000010876    0.000031677   -0.000015325

Difference to translation invariance:
           :    0.0000905251    0.0000478204    0.0001610343

Difference to rotation invariance:
           :   -0.0001600021   -0.0001739418    0.0001265681

Norm of the cartesian gradient     ...    0.0002594133
RMS gradient                       ...    0.0000400283
MAX gradient                       ...    0.0000944383

-------
TIMINGS
-------

Total SCF gradient time            ...        1.699 sec

One electron gradient       ....       0.016 sec  (  1.0%)
RI-J Coulomb gradient       ....       0.121 sec  (  7.2%)
COSX gradient               ....       0.884 sec  ( 52.1%)
XC gradient                 ....       0.471 sec  ( 27.7%)

Maximum memory used throughout the entire SCFGRAD-calculation: 38.8 MB
------------------------------------------------------------------------------
                         ORCA GEOMETRY RELAXATION STEP
------------------------------------------------------------------------------

Reading the OPT-File                    .... done
Getting information on internals        .... done
Copying old internal coords+grads       .... done
Making the new internal coordinates     .... (new redundants).... done
Validating the new internal coordinates .... (new redundants).... done
Calculating the B-matrix                .... done
Calculating the G,G- and P matrices     .... done
Transforming gradient to internals      .... done
Projecting the internal gradient        .... done
Number of atoms                         ....  14
Number of internal coordinates          ....  71
Current Energy                          ....  -344.396843775 Eh
Current gradient norm                   ....     0.000259413 Eh/bohr
Maximum allowed component of the step   ....  0.300
Current trust radius                    ....  0.300
Evaluating the initial hessian          ....  (Almloef) done
Projecting the Hessian                  .... done
Forming the augmented Hessian           .... done
Diagonalizing the augmented Hessian     .... done
Last element of RFO vector              ....  0.999997143
Lowest eigenvalues of augmented Hessian:
 -0.000000154  0.015953615  0.017650202  0.018398889  0.020884653
Length of the computed step             ....  0.002390201
The final length of the internal step   ....  0.002390201
Converting the step to cartesian space:
 Initial RMS(Int)=    0.0002836647
Transforming coordinates:
 Iter   0:  RMS(Cart)=    0.0004528817 RMS(Int)=    0.0002836640
 Iter   1:  RMS(Cart)=    0.0000000855 RMS(Int)=    0.0000000585
Imposing constraints:
 Iter   0:  RMS(Cart)=    0.0000000038 RMS(Int)=    0.0000000047
CONVERGED
done
Storing new coordinates                 .... done

                                .--------------------.
          ----------------------|Geometry convergence|-------------------------
          Item                value                   Tolerance       Converged
          ---------------------------------------------------------------------
          RMS gradient        0.0000159091            0.0005000000      YES
[...]
      px      :     0.946857
      py      :     0.926657
      dz2     :     0.004389  d :     0.033966
      dxz     :     0.005149
      dyz     :     0.005012
      dx2y2   :     0.009525
      dxy     :     0.009892
  6 C s       :     2.960051  s :     2.960051
      pz      :     1.008430  p :     2.962744
      px      :     0.943183
      py      :     1.011131
      dz2     :     0.007043  d :     0.033632
      dxz     :     0.006020
      dyz     :     0.005432
      dx2y2   :     0.008055
      dxy     :     0.007081
  7 H s       :     0.740793  s :     0.740793
      pz      :     0.024828  p :     0.066845
      px      :     0.011507
      py      :     0.030510
  8 H s       :     0.934122  s :     0.934122
      pz      :     0.007152  p :     0.020685
      px      :     0.007237
      py      :     0.006295
  9 H s       :     0.934392  s :     0.934392
      pz      :     0.007546  p :     0.023986
      px      :     0.003103
      py      :     0.013337
 10 H s       :     0.946455  s :     0.946455
      pz      :     0.004582  p :     0.023323
      px      :     0.013869
      py      :     0.004873
 11 H s       :     0.940716  s :     0.940716
      pz      :     0.006060  p :     0.023725
      px      :     0.008593
      py      :     0.009071
 12 H s       :     0.918722  s :     0.918722
      pz      :     0.013859  p :     0.023131
      px      :     0.005024
      py      :     0.004248
 13 H s       :     0.935808  s :     0.935808
      pz      :     0.007065  p :     0.023071
      px      :     0.005405
      py      :     0.010601

SPIN
  0 O s       :     0.000093  s :     0.000093
      pz      :     0.000224  p :     0.008272
      px      :     0.006622
      py      :     0.001426
      dz2     :     0.000010  d :     0.000012
      dxz     :     0.000004
      dyz     :    -0.000001
      dx2y2   :    -0.000012
      dxy     :     0.000011
  1 O s       :     0.001333  s :     0.001333
      pz      :     0.011943  p :     0.010044
      px      :    -0.000975
      py      :    -0.000923
      dz2     :     0.000043  d :     0.000139
      dxz     :     0.000030
      dyz     :     0.000014
      dx2y2   :     0.000008
      dxy     :     0.000044
  2 C s       :    -0.016752  s :    -0.016752
      pz      :    -0.010399  p :    -0.037248
      px      :    -0.013363
      py      :    -0.013487
      dz2     :    -0.000005  d :     0.004162
      dxz     :     0.003335
      dyz     :     0.000168
      dx2y2   :     0.000050
      dxy     :     0.000613
  3 C s       :     0.097795  s :     0.097795
      pz      :     0.451437  p :     0.606610
      px      :     0.025219
      py      :     0.129953
      dz2     :    -0.000944  d :    -0.002745
      dxz     :    -0.000462
      dyz     :    -0.001055
      dx2y2   :    -0.000069
      dxy     :    -0.000215
  4 C s       :    -0.056867  s :    -0.056867
      pz      :    -0.174362  p :    -0.277565
      px      :    -0.027175
      py      :    -0.076027
      dz2     :     0.003397  d :     0.008808
      dxz     :     0.001233
      dyz     :     0.002638
      dx2y2   :     0.001208
      dxy     :     0.000333
  5 C s       :     0.095292  s :     0.095292
      pz      :     0.457350  p :     0.616038
      px      :     0.023555
      py      :     0.135132
      dz2     :    -0.001226  d :    -0.002522
      dxz     :     0.000131
      dyz     :    -0.001205
      dx2y2   :    -0.000255
      dxy     :     0.000032
  6 C s       :    -0.020420  s :    -0.020420
      pz      :    -0.011917  p :    -0.047736
      px      :    -0.029440
      py      :    -0.006379
      dz2     :     0.000409  d :     0.003619
      dxz     :     0.002494
      dyz     :     0.000129
      dx2y2   :    -0.000038
      dxy     :     0.000626
  7 H s       :    -0.000364  s :    -0.000364
      pz      :     0.000019  p :     0.000133
      px      :     0.000115
      py      :    -0.000000
  8 H s       :     0.021461  s :     0.021461
      pz      :     0.000047  p :    -0.000023
      px      :    -0.000196
      py      :     0.000126
  9 H s       :    -0.037548  s :    -0.037548
      pz      :     0.002796  p :     0.003600
      px      :    -0.000089
      py      :     0.000893
 10 H s       :     0.012303  s :     0.012303
      pz      :    -0.000806  p :    -0.001107
      px      :    -0.000074
      py      :    -0.000227
 11 H s       :    -0.038865  s :    -0.038865
      pz      :     0.002909  p :     0.003763
      px      :     0.000072
      py      :     0.000782
 12 H s       :     0.024183  s :     0.024183
      pz      :    -0.000078  p :    -0.000147
      px      :    -0.000092
      py      :     0.000022
 13 H s       :     0.022428  s :     0.022428
      pz      :    -0.000040  p :    -0.000179
      px      :    -0.000112
      py      :    -0.000027


                     *******************************
                     * LOEWDIN POPULATION ANALYSIS *
                     *******************************

-------------------------------------------
LOEWDIN ATOMIC CHARGES AND SPIN POPULATIONS
-------------------------------------------
   0 O :   -0.062862    0.006659
   1 O :   -0.097011    0.018237
   2 C :    0.041786   -0.001223
   3 C :   -0.028500    0.547894
   4 C :   -0.042319   -0.175150
   5 C :   -0.017544    0.559026
   6 C :   -0.056593   -0.010027
   7 H :    0.073290    0.000224
   8 H :    0.021963    0.018539
   9 H :    0.029300   -0.001585
  10 H :    0.034201    0.000391
  11 H :    0.025037   -0.001447
  12 H :    0.041481    0.020585
  13 H :    0.037771    0.017876

----------------------------------------------------
LOEWDIN REDUCED ORBITAL CHARGES AND SPIN POPULATIONS
----------------------------------------------------
CHARGE
  0 O s       :     3.545032  s :     3.545032
      pz      :     1.704412  p :     4.484098
      px      :     1.343471
      py      :     1.436215
      dz2     :     0.002559  d :     0.033732
      dxz     :     0.005559
      dyz     :     0.008464
      dx2y2   :     0.010677
      dxy     :     0.006473
  1 O s       :     3.571422  s :     3.571422
      pz      :     1.540564  p :     4.485814
      px      :     1.198717
      py      :     1.746533
      dz2     :     0.007994  d :     0.039775
      dxz     :     0.011793
      dyz     :     0.004788
      dx2y2   :     0.007561
      dxy     :     0.007639
  2 C s       :     2.858478  s :     2.858478
      pz      :     0.916049  p :     2.939380
      px      :     0.991254
      py      :     1.032078
      dz2     :     0.025437  d :     0.160356
      dxz     :     0.049400
      dyz     :     0.037780
      dx2y2   :     0.016409
      dxy     :     0.031330
  3 C s       :     2.895451  s :     2.895451
      pz      :     0.989530  p :     3.052633
      px      :     1.035612
      py      :     1.027491
      dz2     :     0.006131  d :     0.080416
      dxz     :     0.013191
      dyz     :     0.008897
      dx2y2   :     0.023794
      dxy     :     0.028402
  4 C s       :     2.871044  s :     2.871044
      pz      :     0.979165  p :     3.073069
      px      :     1.050431
      py      :     1.043473
      dz2     :     0.011850  d :     0.098206
      dxz     :     0.012917
      dyz     :     0.014666
      dx2y2   :     0.030066
      dxy     :     0.028708
  5 C s       :     2.892916  s :     2.892916
      pz      :     0.977218  p :     3.041691
      px      :     1.028449
      py      :     1.036024
      dz2     :     0.008524  d :     0.082936
      dxz     :     0.011004
      dyz     :     0.011848
      dx2y2   :     0.026877
      dxy     :     0.024684
  6 C s       :     2.847933  s :     2.847933
      pz      :     1.058968  p :     3.122244
      px      :     1.028106
      py      :     1.035170
      dz2     :     0.018674  d :     0.086416
      dxz     :     0.014055
      dyz     :     0.014066
      dx2y2   :     0.022599
      dxy     :     0.017022
  7 H s       :     0.747675  s :     0.747675
      pz      :     0.067746  p :     0.179036
      px      :     0.032744
      py      :     0.078545
  8 H s       :     0.911384  s :     0.911384
      pz      :     0.023235  p :     0.066653
      px      :     0.022581
      py      :     0.020837
  9 H s       :     0.896987  s :     0.896987
      pz      :     0.023411  p :     0.073712
      px      :     0.011500
      py      :     0.038802
 10 H s       :     0.898124  s :     0.898124
      pz      :     0.013876  p :     0.067675
      px      :     0.038672
      py      :     0.015127
 11 H s       :     0.901987  s :     0.901987
      pz      :     0.019485  p :     0.072976
      px      :     0.026943
      py      :     0.026548
 12 H s       :     0.891036  s :     0.891036
      pz      :     0.038941  p :     0.067483
      px      :     0.015101
      py      :     0.013442
 13 H s       :     0.894425  s :     0.894425
      pz      :     0.019154  p :     0.067804
      px      :     0.016424
      py      :     0.032226

SPIN
  0 O s       :    -0.000077  s :    -0.000077
      pz      :     0.000234  p :     0.006682
      px      :     0.005301
      py      :     0.001147
      dz2     :     0.000042  d :     0.000054
      dxz     :    -0.000010
      dyz     :    -0.000007
      dx2y2   :    -0.000007
      dxy     :     0.000037
  1 O s       :     0.007124  s :     0.007124
      pz      :     0.011109  p :     0.010946
      px      :     0.000397
      py      :    -0.000560
      dz2     :    -0.000012  d :     0.000166
      dxz     :    -0.000004
      dyz     :     0.000006
      dx2y2   :     0.000041
      dxy     :     0.000135
  2 C s       :    -0.002317  s :    -0.002317
      pz      :    -0.001726  p :    -0.009744
      px      :    -0.003004
      py      :    -0.005014
      dz2     :     0.000115  d :     0.010839
      dxz     :     0.008261
      dyz     :     0.000381
      dx2y2   :     0.000231
      dxy     :     0.001852
  3 C s       :     0.020693  s :     0.020693
      pz      :     0.407503  p :     0.532635
      px      :     0.013033
      py      :     0.112099
      dz2     :    -0.001126  d :    -0.005433
      dxz     :    -0.001396
      dyz     :    -0.001278
      dx2y2   :    -0.000620
      dxy     :    -0.001014
  4 C s       :    -0.010698  s :    -0.010698
      pz      :    -0.133914  p :    -0.186138
      px      :    -0.007692
      py      :    -0.044532
      dz2     :     0.007690  d :     0.021685
      dxz     :     0.003225
      dyz     :     0.006081
      dx2y2   :     0.003243
      dxy     :     0.001446
  5 C s       :     0.021130  s :     0.021130
      pz      :     0.416005  p :     0.543114
      px      :     0.012059
      py      :     0.115050
      dz2     :    -0.001895  d :    -0.005218
      dxz     :     0.000014
      dyz     :    -0.001831
      dx2y2   :    -0.001039
      dxy     :    -0.000466
  6 C s       :    -0.003246  s :    -0.003246
      pz      :    -0.002854  p :    -0.016303
      px      :    -0.011886
      py      :    -0.001563
      dz2     :     0.001358  d :     0.009521
      dxz     :     0.005750
      dyz     :     0.000422
      dx2y2   :     0.000399
      dxy     :     0.001593
  7 H s       :    -0.000186  s :    -0.000186
      pz      :     0.000063  p :     0.000410
      px      :     0.000329
      py      :     0.000019
  8 H s       :     0.018888  s :     0.018888
      pz      :    -0.000116  p :    -0.000348
      px      :    -0.000182
      py      :    -0.000050
  9 H s       :    -0.017018  s :    -0.017018
      pz      :     0.010698  p :     0.015434
      px      :     0.000262
      py      :     0.004473
 10 H s       :     0.005414  s :     0.005414
      pz      :    -0.003191  p :    -0.005024
      px      :    -0.000705
      py      :    -0.001127
 11 H s       :    -0.017415  s :    -0.017415
      pz      :     0.010975  p :     0.015968
      px      :     0.001185
      py      :     0.003807
 12 H s       :     0.021254  s :     0.021254
      pz      :    -0.000411  p :    -0.000669
      px      :    -0.000218
      py      :    -0.000040
 13 H s       :     0.018571  s :     0.018571
      pz      :    -0.000133  p :    -0.000695
      px      :    -0.000274
      py      :    -0.000288


                      *****************************
                      * MAYER POPULATION ANALYSIS *
                      *****************************

  NA   - Mulliken gross atomic population
  ZA   - Total nuclear charge
  QA   - Mulliken gross atomic charge
  VA   - Mayer's total valence
  BVA  - Mayer's bonded valence
  FA   - Mayer's free valence

  ATOM       NA         ZA         QA         VA         BVA        FA
  0 O      8.1660     8.0000    -0.1660     1.9796     1.9795     0.0001
  1 O      8.2742     8.0000    -0.2742     1.9150     1.9147     0.0003
  2 C      5.8673     6.0000     0.1327     3.9558     3.9539     0.0019
  3 C      6.0644     6.0000    -0.0644     3.8761     3.5520     0.3242
  4 C      6.0035     6.0000    -0.0035     3.8730     3.8260     0.0470
  5 C      6.1123     6.0000    -0.1123     3.9151     3.5819     0.3333
  6 C      5.9564     6.0000     0.0436     3.8757     3.8738     0.0019
  7 H      0.8076     1.0000     0.1924     1.0020     1.0020     0.0000
  8 H      0.9548     1.0000     0.0452     0.9834     0.9829     0.0005
  9 H      0.9584     1.0000     0.0416     0.9941     0.9927     0.0014
 10 H      0.9698     1.0000     0.0302     0.9855     0.9853     0.0002
 11 H      0.9644     1.0000     0.0356     0.9897     0.9882     0.0015
 12 H      0.9419     1.0000     0.0581     0.9760     0.9754     0.0006
 13 H      0.9589     1.0000     0.0411     1.0030     1.0025     0.0005

  Mayer bond orders larger than 0.100000
B(  0-O ,  1-O ) :   0.9291 B(  0-O ,  7-H ) :   0.9732 B(  1-O ,  2-C ) :   0.9211 
B(  2-C ,  3-C ) :   1.0253 B(  2-C ,  6-C ) :   1.0332 B(  2-C ,  8-H ) :   0.9213 
B(  3-C ,  4-C ) :   1.3988 B(  3-C ,  5-C ) :   0.1293 B(  3-C ,  9-H ) :   0.9884 
B(  4-C ,  5-C ) :   1.4116 B(  4-C , 10-H ) :   0.9953 B(  5-C ,  6-C ) :   1.0333 
B(  5-C , 11-H ) :   0.9865 B(  6-C , 12-H ) :   0.9273 B(  6-C , 13-H ) :   0.9189 



------------------
HIRSHFELD ANALYSIS
------------------

Total integrated alpha density =     27.000012967
Total integrated beta density  =     26.000007418

  ATOM     CHARGE      SPIN    
   0 O   -0.165801    0.007399
   1 O   -0.121368    0.021642
   2 C    0.059122    0.027927
   3 C   -0.031649    0.430894
   4 C   -0.046455   -0.061737
   5 C   -0.024433    0.440185
   6 C   -0.050200    0.026753
   7 H    0.171326    0.000595
   8 H    0.028113    0.019014
   9 H    0.039937    0.027228
  10 H    0.042899   -0.006017
  11 H    0.035512    0.028133
  12 H    0.033136    0.020275
  13 H    0.029840    0.017714

  TOTAL  -0.000020    1.000006

-------
TIMINGS
-------

Total SCF time: 0 days 0 hours 0 min 4 sec 

Total time                  ....       4.214 sec
Sum of individual times     ....       4.095 sec  ( 97.2%)

Fock matrix formation       ....       3.441 sec  ( 81.7%)
  Split-RI-J                ....       0.320 sec  (  9.3% of F)
  Chain of spheres X        ....       2.510 sec  ( 73.0% of F)
  XC integration            ....       0.592 sec  ( 17.2% of F)
    Basis function eval.    ....       0.179 sec  ( 30.3% of XC)
    Density eval.           ....       0.160 sec  ( 27.0% of XC)
    XC-Functional eval.     ....       0.062 sec  ( 10.4% of XC)
    XC-Potential eval.      ....       0.134 sec  ( 22.6% of XC)
Diagonalization             ....       0.050 sec  (  1.2%)
Density matrix formation    ....       0.003 sec  (  0.1%)
Population analysis         ....       0.138 sec  (  3.3%)
Initial guess               ....       0.008 sec  (  0.2%)
Orbital Transformation      ....       0.000 sec  (  0.0%)
Orbital Orthonormalization  ....       0.004 sec  (  0.1%)
DIIS solution               ....       0.029 sec  (  0.7%)
Grid generation             ....       0.425 sec  ( 10.1%)

Maximum memory used throughout the entire SCF-calculation: 50.6 MB


-------------------------------------------------------------------------------
                          DFT DISPERSION CORRECTION                            
                                                                               
                              DFTD3 V3.1  Rev 1                                
                          USING Becke-Johnson damping                          
-------------------------------------------------------------------------------
The PBE0 functional is recognized
Active option DFTDOPT                   ...         4   

molecular C6(AA) [au] = 1774.823556 


            DFT-D V3
 parameters
 s6 scaling factor         :     1.0000 
 a1 scaling factor         :     0.4145 
 s8 scaling factor         :     1.2177 
 a2 scaling factor         :     4.8593 
 ad hoc parameters k1-k3   :    16.0000     1.3333    -4.0000 

 Edisp/kcal,au: -6.245518663355  -0.009952866459 
 E6   /kcal   :  -3.967441664 
 E8   /kcal   :  -2.278076999 
 % E8         :  36.475385339 

-------------------------   ----------------
Dispersion correction           -0.009952866
-------------------------   ----------------


-------------------------   --------------------
FINAL SINGLE POINT ENERGY      -344.396843778644
-------------------------   --------------------

                                *** OPTIMIZATION RUN DONE ***

                            ***************************************
                            *     ORCA property calculations      *
                            ***************************************

                                    ---------------------
                                    Active property flags
                                    ---------------------
   (+) Dipole Moment


------------------------------------------------------------------------------
                       ORCA ELECTRIC PROPERTIES CALCULATION
------------------------------------------------------------------------------

Dipole Moment Calculation                       ... on
Quadrupole Moment Calculation                   ... off
Polarizability Calculation                      ... off
GBWName                                         ... path_opt-1_orca.gbw
Electron density                                ... path_opt-1_orca.scfp
The origin for moment calculation is the CENTER OF MASS  = (-0.471695,  0.155335  0.371675)

-------------
DIPOLE MOMENT
-------------
                                X             Y             Z
Electronic contribution:     -1.99762       0.81137       2.10571
Nuclear contribution   :      2.35886      -1.29793      -2.28493
                        -----------------------------------------
Total Dipole Moment    :      0.36125      -0.48656      -0.17923
                        -----------------------------------------
Magnitude (a.u.)       :      0.63195
Magnitude (Debye)      :      1.60629



--------------------
Rotational spectrum 
--------------------
 
Rotational constants in cm-1:     0.209775     0.066325     0.054644 
Rotational constants in MHz :  6288.897790  1988.387050  1638.199370 

 Dipole components along the rotational axes: 
x,y,z [a.u.] :    -0.346826    -0.487301     0.203989 
x,y,z [Debye]:    -0.881561    -1.238622     0.518499 

 

Timings for individual modules:

Sum of individual times         ...       15.006 sec (=   0.250 min)
GTO integral calculation        ...        0.811 sec (=   0.014 min)   5.4 %
SCF iterations                  ...       11.943 sec (=   0.199 min)  79.6 %
SCF Gradient evaluation         ...        2.008 sec (=   0.033 min)  13.4 %
Geometry relaxation             ...        0.244 sec (=   0.004 min)   1.6 %
                             ****ORCA TERMINATED NORMALLY****
TOTAL RUN TIME: 0 days 0 hours 0 minutes 15 seconds 477 msec
