      -----------------------------------------------------------      
     |                   =====================                   |     
     |                           x T B                           |     
     |                   =====================                   |     
     |                         S. Grimme                         |     
     |          Mulliken Center for Theoretical Chemistry        |     
     |                    University of Bonn                     |     
      -----------------------------------------------------------      

   * xtb version 6.6.1 (8d0f1dd) compiled by 'conda@1efc2f54142f' on 2023-08-01

   xtb is free software: you can redistribute it and/or modify it under
   the terms of the GNU Lesser General Public License as published by
   the Free Software Foundation, either version 3 of the License, or
   (at your option) any later version.
   
   xtb is distributed in the hope that it will be useful,
   but WITHOUT ANY WARRANTY; without even the implied warranty of
   MERCHANTABILITY or FITNESS FOR A PARTICULAR PURPOSE.  See the
   GNU Lesser General Public License for more details.
   
   Cite this work as:
   * C. Bannwarth, E. Caldeweyher, S. Ehlert, A. Hansen, P. Pracht,
     J. Seibert, S. Spicher, S. Grimme, WIREs Comput. Mol. Sci., 2020, 11,
     e01493. DOI: 10.1002/wcms.1493
   
   for GFN2-xTB:
   * C. Bannwarth, S. Ehlert and S. Grimme., J. Chem. Theory Comput., 2019,
     15, 1652-1671. DOI: 10.1021/acs.jctc.8b01176
   for GFN1-xTB:
   * S. Grimme, C. Bannwarth, P. Shushkov, J. Chem. Theory Comput., 2017,
     13, 1989-2009. DOI: 10.1021/acs.jctc.7b00118
   for GFN0-xTB:
   * P. Pracht, E. Caldeweyher, S. Ehlert, S. Grimme, ChemRxiv, 2019, preprint.
     DOI: 10.26434/chemrxiv.8326202.v1
   for GFN-FF:
   * S. Spicher and S. Grimme, Angew. Chem. Int. Ed., 2020, 59, 15665-15673.
     DOI: 10.1002/anie.202004239
   
   for ALPB and GBSA implicit solvation:
   * S. Ehlert, M. Stahn, S. Spicher, S. Grimme, J. Chem. Theory Comput.,
     2021, 17, 4250-4261. DOI: 10.1021/acs.jctc.1c00471
   
   for DFT-D4:
   * E. Caldeweyher, C. Bannwarth and S. Grimme, J. Chem. Phys., 2017,
     147, 034112. DOI: 10.1063/1.4993215
   * E. Caldeweyher, S. Ehlert, A. Hansen, H. Neugebauer, S. Spicher,
     C. Bannwarth and S. Grimme, J. Chem. Phys., 2019, 150, 154122.
     DOI: 10.1063/1.5090222
   * E. Caldeweyher, J.-M. Mewes, S. Ehlert and S. Grimme, Phys. Chem. Chem. Phys.
     2020, 22, 8499-8512. DOI: 10.1039/D0CP00502A
   
   for sTDA-xTB:
   * S. Grimme and C. Bannwarth, J. Chem. Phys., 2016, 145, 054103.
     DOI: 10.1063/1.4959605
   
   in the mass-spec context:
   * V. Asgeirsson, C. Bauer and S. Grimme, Chem. Sci., 2017, 8, 4879.
     DOI: 10.1039/c7sc00601b
   * J. Koopman and S. Grimme, ACS Omega 2019, 4, 12, 15120-15133.
     DOI: 10.1021/acsomega.9b02011
   
   for metadynamics refer to:
   * S. Grimme, J. Chem. Theory Comput., 2019, 155, 2847-2862
     DOI: 10.1021/acs.jctc.9b00143
   
   for SPH calculations refer to:
   * S. Spicher and S. Grimme, J. Chem. Theory Comput., 2021, 17, 1701-1714
     DOI: 10.1021/acs.jctc.0c01306
   
   with help from (in alphabetical order)
   P. Atkinson, C. Bannwarth, F. Bohle, G. Brandenburg, E. Caldeweyher
   M. Checinski, S. Dohm, S. Ehlert, S. Ehrlich, I. Gerasimov, C. Hölzer
   A. Katbashev, J. Koopman, C. Lavigne, S. Lehtola, F. März, M. Müller,
   F. Musil, H. Neugebauer, J. Pisarek, C. Plett, P. Pracht, F. Pultar,
   J. Seibert, P. Shushkov, S. Spicher, M. Stahn, M. Steiner, T. Strunk,
   J. Stückrath, T. Rose, and J. Unsleber
   
 * started run on 2025/05/23 at 12:05:46.163     

           -------------------------------------------------
          |                Calculation Setup                |
           -------------------------------------------------

          program call               : /gpfs/fs1/home/copan/code/autode-practice/.pixi/envs/default/bin/xtb path_opt5_xtb.xyz --chrg 0 --uhf 1 --opt --input xcontrol_path_opt5_xtb
          hostname                   : csed-0029
          coordinate file            : path_opt5_xtb.xyz
          omp threads                :                     8

   ID    Z sym.   atoms
    1    8 O      1, 2
    2    6 C      3-7
    3    1 H      8-14
constraining bond 2 6 to    2.3102000 Å, actual value:    2.3716226 Å
constraining bond 1 2 to    2.3868000 Å, actual value:    2.0880270 Å

molecular fragmentation (1/2 indicates fragments):
12222221222222
# atoms in fragment 1/2:     2    12
 fragment masses (1/2) :       17.01       82.10
CMA distance (Bohr)    :   6.103
constraining FC (au)   :  2.0000

           -------------------------------------------------
          |                 G F N 2 - x T B                 |
           -------------------------------------------------

        Reference                      10.1021/acs.jctc.8b01176
      * Hamiltonian:
        H0-scaling (s, p, d)           1.850000    2.230000    2.230000
        zeta-weighting                 0.500000
      * Dispersion:
        s8                             2.700000
        a1                             0.520000
        a2                             5.000000
        s9                             5.000000
      * Repulsion:
        kExp                           1.500000    1.000000
        rExp                           1.000000
      * Coulomb:
        alpha                          2.000000
        third order                    shell-resolved
        anisotropic                    true
        a3                             3.000000
        a5                             4.000000
        cn-shift                       1.200000
        cn-exp                         4.000000
        max-rad                        5.000000


          ...................................................
          :                      SETUP                      :
          :.................................................:
          :  # basis functions                  35          :
          :  # atomic orbitals                  35          :
          :  # shells                           21          :
          :  # electrons                        39          :
          :  max. iterations                   250          :
          :  Hamiltonian                  GFN2-xTB          :
          :  restarted?                      false          :
          :  GBSA solvation                  false          :
          :  PC potential                    false          :
          :  electronic temp.          300.0000000     K    :
          :  accuracy                    1.0000000          :
          :  -> integral cutoff          0.2500000E+02      :
          :  -> integral neglect         0.1000000E-07      :
          :  -> SCF convergence          0.1000000E-05 Eh   :
          :  -> wf. convergence          0.1000000E-03 e    :
          :  Broyden damping             0.4000000          :
          ...................................................

 iter      E             dE          RMSdq      gap      omega  full diag
   1    -22.4000951 -0.224001E+02  0.423E+00    4.14       0.0  T
   2    -22.4634811 -0.633860E-01  0.258E+00    1.67       1.0  T
   3    -22.4765057 -0.130246E-01  0.133E+00    3.20       1.0  T
   4    -22.4767305 -0.224785E-03  0.383E-01    3.36       1.0  T
   5    -22.4779938 -0.126330E-02  0.169E-01    3.22       1.0  T
   6    -22.4782473 -0.253535E-03  0.650E-02    3.16       1.0  T
   7    -22.4782510 -0.370586E-05  0.196E-02    3.13       1.4  T
   8    -22.4782520 -0.998618E-06  0.742E-03    3.15       3.6  T
   9    -22.4782524 -0.372574E-06  0.243E-03    3.15      11.0  T
  10    -22.4782524 -0.170645E-07  0.119E-03    3.14      22.5  T
  11    -22.4782524 -0.275122E-08  0.496E-04    3.15      53.9  T
  12    -22.4782524 -0.110539E-08  0.178E-04    3.15     150.3  T

   *** convergence criteria satisfied after 12 iterations ***

         #    Occupation            Energy/Eh            Energy/eV
      -------------------------------------------------------------
         1        2.0000           -0.7416531             -20.1814
       ...           ...                  ...                  ...
        14        2.0000           -0.4862573             -13.2317
        15        2.0000           -0.4800940             -13.0640
        16        2.0000           -0.4608161             -12.5394
        17        2.0000           -0.4446288             -12.0990
        18        2.0000           -0.4190469             -11.4028
        19        2.0000           -0.3945829             -10.7371
        20        1.0000           -0.3566412              -9.7047 (HOMO)
        21                         -0.2410604              -6.5596 (LUMO)
        22                         -0.0935081              -2.5445
        23                          0.0627217               1.7067
        24                          0.0754344               2.0527
        25                          0.0899700               2.4482
       ...                                ...                  ...
        35                          0.6375647              17.3490
      -------------------------------------------------------------
                  HL-Gap            0.1155808 Eh            3.1451 eV
             Fermi-level           -0.3372315 Eh           -9.1765 eV

 SCC (total)                   0 d,  0 h,  0 min,  0.010 sec
 SCC setup                      ...        0 min,  0.000 sec (  2.040%)
 Dispersion                     ...        0 min,  0.000 sec (  1.211%)
 classical contributions        ...        0 min,  0.000 sec (  1.602%)
 integral evaluation            ...        0 min,  0.000 sec (  4.204%)
 iterations                     ...        0 min,  0.008 sec ( 79.715%)
 molecular gradient             ...        0 min,  0.001 sec (  8.717%)
 printout                       ...        0 min,  0.000 sec (  2.280%)

         :::::::::::::::::::::::::::::::::::::::::::::::::::::
         ::                     SUMMARY                     ::
         :::::::::::::::::::::::::::::::::::::::::::::::::::::
         :: total energy             -21.550490131367 Eh    ::
         :: gradient norm              3.519291295108 Eh/a0 ::
         :: HOMO-LUMO gap              3.145113308632 eV    ::
         ::.................................................::
         :: SCC energy               -22.478252439485 Eh    ::
         :: -> isotropic ES            0.053439239154 Eh    ::
         :: -> anisotropic ES         -0.004764321632 Eh    ::
         :: -> anisotropic XC          0.004159314877 Eh    ::
         :: -> dispersion             -0.008348089452 Eh    ::
         :: repulsion energy           0.263258067533 Eh    ::
         :: add. restraining           0.664489523269 Eh    ::
         :: total charge              -0.000000000000 e     ::
         :::::::::::::::::::::::::::::::::::::::::::::::::::::

      ----------------------------------------------------------- 
     |                   =====================                   |
     |                        A N C O P T                        |
     |                   =====================                   |
     |               Approximate Normal Coordinate               |
     |                Rational Function Optimizer                |
      ----------------------------------------------------------- 

          ...................................................
          :                      SETUP                      :
          :.................................................:
          :   optimization level            normal          :
          :   max. optcycles                   200          :
          :   ANC micro-cycles                  20          :
          :   degrees of freedom                36          :
          :.................................................:
          :   RF solver                   davidson          :
          :   write xtbopt.log                true          :
          :   linear?                        false          :
          :   energy convergence         0.5000000E-05 Eh   :
          :   grad. convergence          0.1000000E-02 Eh/α :
          :   maxmium RF displ.          1.0000000          :
          :   Hlow (freq-cutoff)         0.1000000E-01      :
          :   Hmax (freq-cutoff)         5.0000000          :
          :   S6 in model hess.         20.0000000          :
          ...................................................

generating ANC from model Hessian ...
Using Lindh-Hessian (1995)
 Shifting diagonal of input Hessian by   0.92788312732912204     
 Lowest  eigenvalues of input Hessian
    0.010000    0.340088    0.000000    0.000000    0.000000    0.000000
    0.000000    0.000000    0.931761    0.938615    0.949773    0.955453
    0.970952    0.985428    0.989457    1.002669    1.008637    1.024393
 Highest eigenvalues
    2.356182    2.508396    2.750775    2.896745    5.488290   13.285751


........................................................................
.............................. CYCLE    1 ..............................
........................................................................

 iter      E             dE          RMSdq      gap      omega  full diag
   1    -22.4782524 -0.224783E+02  0.735E-05    3.15       0.0  T
   2    -22.4782524 -0.385292E-10  0.398E-05    3.15     671.0  T
   3    -22.4782524 -0.153442E-10  0.171E-05    3.15    1566.4  T
     SCC iter.                  ...        0 min,  0.002 sec
     gradient                   ...        0 min,  0.001 sec
 * total energy  :   -21.5504901 Eh     change       -0.8627055E-10 Eh
   gradient norm :     3.5192908 Eh/α   predicted     0.0000000E+00 (-100.00%)
   displ. norm   :     0.5173916 α      lambda       -0.1819401E+01
   maximum displ.:     0.4734106 α      in ANC's #35, #36, #26, ...

........................................................................
.............................. CYCLE    2 ..............................
........................................................................

 iter      E             dE          RMSdq      gap      omega  full diag
   1    -22.4195114 -0.224195E+02  0.110E+00    4.03       0.0  T
   2    -22.4108993  0.861215E-02  0.151E+00    2.22       1.0  T
   3    -22.4318794 -0.209801E-01  0.868E-01    3.25       1.0  T
   4    -22.4133228  0.185566E-01  0.121E+00    3.91       1.0  T
   5    -22.4435325 -0.302096E-01  0.843E-02    3.69       1.0  T
   6    -22.4430104  0.522077E-03  0.172E-01    3.65       1.0  T
   7    -22.4433853 -0.374909E-03  0.951E-02    3.67       1.0  T
   8    -22.4435528 -0.167515E-03  0.192E-02    3.70       1.4  T
   9    -22.4435437  0.913450E-05  0.279E-02    3.71       1.0  T
  10    -22.4435555 -0.118383E-04  0.111E-02    3.71       2.4  T
  11    -22.4435579 -0.233015E-05  0.690E-04    3.70      38.7  T
  12    -22.4435579  0.289206E-08  0.675E-04    3.70      39.6  T
  13    -22.4435579 -0.663664E-08  0.331E-04    3.70      80.8  T
     SCC iter.                  ...        0 min,  0.007 sec
     gradient                   ...        0 min,  0.001 sec
 * total energy  :   -21.9046982 Eh     change       -0.3542080E+00 Eh
   gradient norm :     2.5982381 Eh/α   predicted    -0.1153222E+01 ( 225.58%)
   displ. norm   :     0.2278415 α      lambda       -0.5601849E+00
   maximum displ.:     0.1993018 α      in ANC's #35, #36, #2, ...

........................................................................
.............................. CYCLE    3 ..............................
........................................................................

 iter      E             dE          RMSdq      gap      omega  full diag
   1    -22.4540840 -0.224541E+02  0.677E-01    3.36       0.0  T
   2    -22.4159818  0.381021E-01  0.151E+00    4.07       1.0  T
   3    -22.4595380 -0.435561E-01  0.280E-01    3.57       1.0  T
   4    -22.4602190 -0.681086E-03  0.152E-01    3.77       1.0  T
   5    -22.4604978 -0.278722E-03  0.666E-02    3.74       1.0  T
   6    -22.4605618 -0.640590E-04  0.291E-02    3.72       1.0  T
   7    -22.4605760 -0.141656E-04  0.475E-03    3.71       5.6  T
   8    -22.4605761 -0.711711E-07  0.237E-03    3.71      11.3  T
   9    -22.4605760  0.271615E-07  0.192E-03    3.71      13.9  T
  10    -22.4605761 -0.576591E-07  0.388E-04    3.71      69.0  T
  11    -22.4605761 -0.456819E-09  0.246E-04    3.71     108.8  T
     SCC iter.                  ...        0 min,  0.006 sec
     gradient                   ...        0 min,  0.001 sec
 * total energy  :   -22.1999428 Eh     change       -0.2952446E+00 Eh
   gradient norm :     0.1397180 Eh/α   predicted    -0.2946325E+00 (  -0.21%)
   displ. norm   :     0.0382810 α      lambda       -0.3387303E-02
   maximum displ.:     0.0155517 α      in ANC's #19, #1, #36, ...

........................................................................
.............................. CYCLE    4 ..............................
........................................................................

 iter      E             dE          RMSdq      gap      omega  full diag
   1    -22.4626507 -0.224627E+02  0.108E-01    3.71       0.0  T
   2    -22.4619108  0.739875E-03  0.227E-01    3.84       1.0  T
   3    -22.4628331 -0.922269E-03  0.249E-02    3.75       1.1  T
   4    -22.4628310  0.212099E-05  0.208E-02    3.76       1.3  T
   5    -22.4628342 -0.316172E-05  0.924E-03    3.76       2.9  T
   6    -22.4628356 -0.142288E-05  0.241E-03    3.75      11.1  T
   7    -22.4628356 -0.555202E-07  0.101E-03    3.75      26.4  T
   8    -22.4628356 -0.140863E-07  0.485E-04    3.75      55.1  T
   9    -22.4628356 -0.403784E-08  0.950E-05    3.75     281.2  T
     SCC iter.                  ...        0 min,  0.005 sec
     gradient                   ...        0 min,  0.001 sec
 * total energy  :   -22.2021163 Eh     change       -0.2173542E-02 Eh
   gradient norm :     0.0325957 Eh/α   predicted    -0.1696134E-02 ( -21.96%)
   displ. norm   :     0.0613675 α      lambda       -0.1261300E-02
   maximum displ.:     0.0457783 α      in ANC's #1, #19, #18, ...

........................................................................
.............................. CYCLE    5 ..............................
........................................................................

 iter      E             dE          RMSdq      gap      omega  full diag
   1    -22.4652382 -0.224652E+02  0.966E-02    3.78       0.0  T
   2    -22.4650786  0.159601E-03  0.116E-01    3.84       1.0  T
   3    -22.4652666 -0.187985E-03  0.539E-02    3.78       1.0  T
   4    -22.4652864 -0.198647E-04  0.182E-02    3.80       1.5  T
   5    -22.4652899 -0.349506E-05  0.476E-03    3.80       5.6  T
   6    -22.4652900 -0.133211E-06  0.284E-03    3.80       9.4  T
   7    -22.4652901 -0.930407E-08  0.126E-03    3.80      21.2  T
   8    -22.4652901 -0.120060E-07  0.424E-04    3.80      63.0  T
   9    -22.4652901 -0.813383E-09  0.977E-05    3.80     273.6  T
     SCC iter.                  ...        0 min,  0.005 sec
     gradient                   ...        0 min,  0.001 sec
 * total energy  :   -22.2029805 Eh     change       -0.8642013E-03 Eh
   gradient norm :     0.0421223 Eh/α   predicted    -0.6330270E-03 ( -26.75%)
   displ. norm   :     0.2545811 α      lambda       -0.1975902E-02
   maximum displ.:     0.2399830 α      in ANC's #1, #19, #18, ...

........................................................................
.............................. CYCLE    6 ..............................
........................................................................

 iter      E             dE          RMSdq      gap      omega  full diag
   1    -22.4654140 -0.224654E+02  0.314E-01    3.76       0.0  T
   2    -22.4627312  0.268271E-02  0.477E-01    4.01       1.0  T
   3    -22.4661727 -0.344147E-02  0.148E-01    3.82       1.0  T
   4    -22.4661775 -0.479383E-05  0.106E-01    3.88       1.0  T
   5    -22.4662766 -0.991067E-04  0.385E-02    3.88       1.0  T
   6    -22.4662925 -0.158782E-04  0.183E-02    3.87       1.5  T
   7    -22.4662930 -0.465719E-06  0.110E-02    3.85       2.4  T
   8    -22.4662950 -0.205362E-05  0.380E-03    3.86       7.0  T
   9    -22.4662953 -0.238638E-06  0.819E-04    3.86      32.6  T
  10    -22.4662953 -0.588106E-08  0.433E-04    3.86      61.7  T
     SCC iter.                  ...        0 min,  0.005 sec
     gradient                   ...        0 min,  0.001 sec
 * total energy  :   -22.2020479 Eh     change        0.9326251E-03 Eh
   gradient norm :     0.0656267 Eh/α   predicted    -0.1051983E-02 (-212.80%)
   displ. norm   :     0.2136113 α      lambda       -0.3732269E-02
   maximum displ.:     0.2132637 α      in ANC's #1, #36, #24, ...

........................................................................
.............................. CYCLE    7 ..............................
........................................................................

 iter      E             dE          RMSdq      gap      omega  full diag
   1    -22.4676773 -0.224677E+02  0.226E-01    3.89       0.0  T
   2    -22.4671022  0.575059E-03  0.270E-01    3.72       1.0  T
   3    -22.4680049 -0.902633E-03  0.105E-01    3.85       1.0  T
   4    -22.4679961  0.876399E-05  0.502E-02    3.83       1.0  T
   5    -22.4680212 -0.251271E-04  0.163E-02    3.84       1.6  T
   6    -22.4680225 -0.131322E-05  0.103E-02    3.83       2.6  T
   7    -22.4680225  0.889762E-08  0.364E-03    3.83       7.3  T
   8    -22.4680227 -0.180932E-06  0.101E-03    3.84      26.4  T
   9    -22.4680227 -0.133946E-07  0.404E-04    3.84      66.2  T
  10    -22.4680227 -0.202861E-08  0.755E-05    3.84     353.8  T
     SCC iter.                  ...        0 min,  0.005 sec
     gradient                   ...        0 min,  0.001 sec
 * total energy  :   -22.2037446 Eh     change       -0.1696712E-02 Eh
   gradient norm :     0.0324433 Eh/α   predicted    -0.1951282E-02 (  15.00%)
   displ. norm   :     0.0163531 α      lambda       -0.2325759E-03
   maximum displ.:     0.0093145 α      in ANC's #1, #24, #2, ...

........................................................................
.............................. CYCLE    8 ..............................
........................................................................

 iter      E             dE          RMSdq      gap      omega  full diag
   1    -22.4668553 -0.224669E+02  0.252E-02    3.82       0.0  T
   2    -22.4668464  0.887886E-05  0.314E-02    3.80       1.0  T
   3    -22.4668590 -0.126465E-04  0.112E-02    3.81       2.4  T
   4    -22.4668589  0.104867E-06  0.756E-03    3.81       3.5  T
   5    -22.4668595 -0.562405E-06  0.146E-03    3.81      18.3  T
   6    -22.4668595 -0.901245E-08  0.825E-04    3.81      32.4  T
   7    -22.4668595 -0.262566E-08  0.303E-04    3.81      88.3  T
     SCC iter.                  ...        0 min,  0.004 sec
     gradient                   ...        0 min,  0.001 sec
 * total energy  :   -22.2038837 Eh     change       -0.1390316E-03 Eh
   gradient norm :     0.0095073 Eh/α   predicted    -0.1163201E-03 ( -16.34%)
   displ. norm   :     0.0165566 α      lambda       -0.1266456E-03
   maximum displ.:     0.0084039 α      in ANC's #19, #1, #18, ...

........................................................................
.............................. CYCLE    9 ..............................
........................................................................

 iter      E             dE          RMSdq      gap      omega  full diag
   1    -22.4667235 -0.224667E+02  0.249E-02    3.78       0.0  T
   2    -22.4667186  0.488308E-05  0.243E-02    3.79       1.1  T
   3    -22.4667237 -0.504912E-05  0.152E-02    3.78       1.8  T
   4    -22.4667251 -0.144377E-05  0.599E-03    3.79       4.5  T
   5    -22.4667256 -0.523385E-06  0.750E-04    3.79      35.6  T
   6    -22.4667256 -0.447535E-08  0.347E-04    3.79      76.9  T
     SCC iter.                  ...        0 min,  0.003 sec
     gradient                   ...        0 min,  0.001 sec
 * total energy  :   -22.2039821 Eh     change       -0.9842158E-04 Eh
   gradient norm :     0.0092688 Eh/α   predicted    -0.6334051E-04 ( -35.64%)
   displ. norm   :     0.0276608 α      lambda       -0.1280267E-03
   maximum displ.:     0.0142960 α      in ANC's #19, #4, #9, ...

........................................................................
.............................. CYCLE   10 ..............................
........................................................................

 iter      E             dE          RMSdq      gap      omega  full diag
   1    -22.4669692 -0.224670E+02  0.417E-02    3.75       0.0  T
   2    -22.4669527  0.165057E-04  0.427E-02    3.78       1.0  T
   3    -22.4669710 -0.182822E-04  0.245E-02    3.76       1.1  T
   4    -22.4669747 -0.370288E-05  0.823E-03    3.76       3.2  T
   5    -22.4669757 -0.975727E-06  0.109E-03    3.76      24.5  T
   6    -22.4669757 -0.122447E-07  0.405E-04    3.76      66.0  T
   7    -22.4669757 -0.543707E-10  0.167E-04    3.76     159.9  T
     SCC iter.                  ...        0 min,  0.004 sec
     gradient                   ...        0 min,  0.001 sec
 * total energy  :   -22.2040572 Eh     change       -0.7510952E-04 Eh
   gradient norm :     0.0077801 Eh/α   predicted    -0.6405988E-04 ( -14.71%)
   displ. norm   :     0.0090563 α      lambda       -0.2302200E-04
   maximum displ.:     0.0048297 α      in ANC's #4, #9, #2, ...

........................................................................
.............................. CYCLE   11 ..............................
........................................................................

 iter      E             dE          RMSdq      gap      omega  full diag
   1    -22.4672182 -0.224672E+02  0.114E-02    3.76       0.0  T
   2    -22.4672177  0.437169E-06  0.874E-03    3.77       3.1  T
   3    -22.4672173  0.474329E-06  0.897E-03    3.76       3.0  T
   4    -22.4672183 -0.107565E-05  0.654E-04    3.76      40.9  T
   5    -22.4672183 -0.438811E-08  0.279E-04    3.76      95.6  T
   6    -22.4672183 -0.718035E-09  0.137E-04    3.76     194.8  T
     SCC iter.                  ...        0 min,  0.003 sec
     gradient                   ...        0 min,  0.001 sec
 * total energy  :   -22.2040762 Eh     change       -0.1897579E-04 Eh
   gradient norm :     0.0048167 Eh/α   predicted    -0.1151180E-04 ( -39.33%)
   displ. norm   :     0.0218928 α      lambda       -0.5523801E-04
   maximum displ.:     0.0134809 α      in ANC's #4, #9, #2, ...

........................................................................
.............................. CYCLE   12 ..............................
........................................................................

 iter      E             dE          RMSdq      gap      omega  full diag
   1    -22.4677501 -0.224678E+02  0.254E-02    3.77       0.0  T
   2    -22.4677497  0.397785E-06  0.158E-02    3.77       1.7  T
   3    -22.4677448  0.482570E-05  0.194E-02    3.76       1.4  T
   4    -22.4677502 -0.531696E-05  0.441E-03    3.77       6.1  T
   5    -22.4677504 -0.270927E-06  0.710E-04    3.77      37.6  T
   6    -22.4677504 -0.272258E-08  0.367E-04    3.77      72.7  T
     SCC iter.                  ...        0 min,  0.003 sec
     gradient                   ...        0 min,  0.001 sec
 * total energy  :   -22.2041146 Eh     change       -0.3842854E-04 Eh
   gradient norm :     0.0071204 Eh/α   predicted    -0.2763153E-04 ( -28.10%)
   displ. norm   :     0.0203087 α      lambda       -0.4059221E-04
   maximum displ.:     0.0137547 α      in ANC's #4, #9, #5, ...

........................................................................
.............................. CYCLE   13 ..............................
........................................................................

 iter      E             dE          RMSdq      gap      omega  full diag
   1    -22.4679784 -0.224680E+02  0.223E-02    3.78       0.0  T
   2    -22.4679784 -0.380683E-07  0.130E-02    3.78       2.0  T
   3    -22.4679776  0.833658E-06  0.100E-02    3.78       2.7  T
   4    -22.4679786 -0.976366E-06  0.182E-03    3.78      14.6  T
   5    -22.4679786 -0.412858E-07  0.830E-04    3.78      32.2  T
   6    -22.4679786 -0.894827E-08  0.355E-04    3.78      75.2  T
     SCC iter.                  ...        0 min,  0.003 sec
     gradient                   ...        0 min,  0.001 sec
 * total energy  :   -22.2041458 Eh     change       -0.3121488E-04 Eh
   gradient norm :     0.0098719 Eh/α   predicted    -0.2030384E-04 ( -34.95%)
   displ. norm   :     0.0304042 α      lambda       -0.5771596E-04
   maximum displ.:     0.0216605 α      in ANC's #4, #9, #5, ...

........................................................................
.............................. CYCLE   14 ..............................
........................................................................

 iter      E             dE          RMSdq      gap      omega  full diag
   1    -22.4678713 -0.224679E+02  0.325E-02    3.79       0.0  T
   2    -22.4678711  0.219018E-06  0.194E-02    3.79       1.4  T
   3    -22.4678642  0.685932E-05  0.225E-02    3.80       1.2  T
   4    -22.4678714 -0.715120E-05  0.514E-03    3.79       5.2  T
   5    -22.4678718 -0.384202E-06  0.104E-03    3.79      25.7  T
   6    -22.4678718 -0.104499E-07  0.442E-04    3.79      60.4  T
   7    -22.4678718 -0.209660E-09  0.150E-04    3.79     178.0  T
     SCC iter.                  ...        0 min,  0.004 sec
     gradient                   ...        0 min,  0.001 sec
 * total energy  :   -22.2041868 Eh     change       -0.4098426E-04 Eh
   gradient norm :     0.0091546 Eh/α   predicted    -0.2888490E-04 ( -29.52%)
   displ. norm   :     0.0261229 α      lambda       -0.4456363E-04
   maximum displ.:     0.0195205 α      in ANC's #4, #9, #5, ...

........................................................................
.............................. CYCLE   15 ..............................
........................................................................

 iter      E             dE          RMSdq      gap      omega  full diag
   1    -22.4673690 -0.224674E+02  0.275E-02    3.80       0.0  T
   2    -22.4673684  0.640681E-06  0.172E-02    3.79       1.6  T
   3    -22.4673602  0.822572E-05  0.245E-02    3.80       1.1  T
   4    -22.4673694 -0.924854E-05  0.134E-03    3.79      19.9  T
   5    -22.4673694 -0.114226E-07  0.804E-04    3.79      33.2  T
   6    -22.4673694 -0.478747E-08  0.375E-04    3.79      71.2  T
     SCC iter.                  ...        0 min,  0.003 sec
     gradient                   ...        0 min,  0.001 sec
 * total energy  :   -22.2042188 Eh     change       -0.3197636E-04 Eh
   gradient norm :     0.0056765 Eh/α   predicted    -0.2229599E-04 ( -30.27%)
   displ. norm   :     0.0211555 α      lambda       -0.3553852E-04
   maximum displ.:     0.0166991 α      in ANC's #4, #5, #9, ...

........................................................................
.............................. CYCLE   16 ..............................
........................................................................

 iter      E             dE          RMSdq      gap      omega  full diag
   1    -22.4667171 -0.224667E+02  0.224E-02    3.79       0.0  T
   2    -22.4667163  0.735102E-06  0.147E-02    3.78       1.8  T
   3    -22.4667125  0.384636E-05  0.190E-02    3.79       1.4  T
   4    -22.4667174 -0.491318E-05  0.289E-03    3.79       9.3  T
   5    -22.4667175 -0.108115E-06  0.678E-04    3.79      39.4  T
   6    -22.4667175 -0.303092E-08  0.377E-04    3.79      70.8  T
     SCC iter.                  ...        0 min,  0.003 sec
     gradient                   ...        0 min,  0.001 sec
 * total energy  :   -22.2042439 Eh     change       -0.2515318E-04 Eh
   gradient norm :     0.0045825 Eh/α   predicted    -0.1777734E-04 ( -29.32%)
   displ. norm   :     0.0167060 α      lambda       -0.2698691E-04
   maximum displ.:     0.0139135 α      in ANC's #4, #5, #7, ...

........................................................................
.............................. CYCLE   17 ..............................
........................................................................

 iter      E             dE          RMSdq      gap      omega  full diag
   1    -22.4662178 -0.224662E+02  0.180E-02    3.78       0.0  T
   2    -22.4662174  0.446118E-06  0.122E-02    3.78       2.2  T
   3    -22.4662159  0.149450E-05  0.137E-02    3.78       2.0  T
   4    -22.4662179 -0.203121E-05  0.450E-03    3.78       5.9  T
   5    -22.4662182 -0.321825E-06  0.510E-04    3.78      52.4  T
   6    -22.4662182 -0.162832E-08  0.309E-04    3.78      86.5  T
     SCC iter.                  ...        0 min,  0.003 sec
     gradient                   ...        0 min,  0.001 sec
 * total energy  :   -22.2042640 Eh     change       -0.2010809E-04 Eh
   gradient norm :     0.0059599 Eh/α   predicted    -0.1349900E-04 ( -32.87%)
   displ. norm   :     0.0213494 α      lambda       -0.3192007E-04
   maximum displ.:     0.0182625 α      in ANC's #4, #5, #15, ...

........................................................................
.............................. CYCLE   18 ..............................
........................................................................

 iter      E             dE          RMSdq      gap      omega  full diag
   1    -22.4658499 -0.224658E+02  0.230E-02    3.77       0.0  T
   2    -22.4658495  0.333111E-06  0.151E-02    3.76       1.8  T
   3    -22.4658468  0.271184E-05  0.166E-02    3.77       1.6  T
   4    -22.4658498 -0.299906E-05  0.599E-03    3.76       4.5  T
   5    -22.4658504 -0.606870E-06  0.792E-04    3.77      33.7  T
   6    -22.4658504 -0.571629E-08  0.372E-04    3.77      71.8  T
     SCC iter.                  ...        0 min,  0.003 sec
     gradient                   ...        0 min,  0.001 sec
 * total energy  :   -22.2042881 Eh     change       -0.2407740E-04 Eh
   gradient norm :     0.0066875 Eh/α   predicted    -0.1596785E-04 ( -33.68%)
   displ. norm   :     0.0309614 α      lambda       -0.4151952E-04
   maximum displ.:     0.0268875 α      in ANC's #4, #5, #15, ...

........................................................................
.............................. CYCLE   19 ..............................
........................................................................

 iter      E             dE          RMSdq      gap      omega  full diag
   1    -22.4657089 -0.224657E+02  0.326E-02    3.76       0.0  T
   2    -22.4657088  0.532915E-07  0.204E-02    3.76       1.3  T
   3    -22.4657029  0.595480E-05  0.216E-02    3.77       1.2  T
   4    -22.4657087 -0.585527E-05  0.696E-03    3.76       3.8  T
   5    -22.4657096 -0.841908E-06  0.134E-03    3.76      19.9  T
   6    -22.4657096 -0.164718E-07  0.537E-04    3.76      49.8  T
   7    -22.4657096 -0.933554E-09  0.216E-04    3.76     123.9  T
     SCC iter.                  ...        0 min,  0.004 sec
     gradient                   ...        0 min,  0.001 sec
 * total energy  :   -22.2043190 Eh     change       -0.3086165E-04 Eh
   gradient norm :     0.0064265 Eh/α   predicted    -0.2077958E-04 ( -32.67%)
   displ. norm   :     0.0376420 α      lambda       -0.4610766E-04
   maximum displ.:     0.0331270 α      in ANC's #4, #5, #15, ...

........................................................................
.............................. CYCLE   20 ..............................
........................................................................

 iter      E             dE          RMSdq      gap      omega  full diag
   1    -22.4659382 -0.224659E+02  0.387E-02    3.76       0.0  T
   2    -22.4659385 -0.279924E-06  0.236E-02    3.76       1.1  T
   3    -22.4659348  0.366017E-05  0.161E-02    3.77       1.7  T
   4    -22.4659381 -0.332231E-05  0.564E-03    3.76       4.7  T
   5    -22.4659387 -0.543564E-06  0.176E-03    3.76      15.2  T
   6    -22.4659387 -0.330963E-07  0.640E-04    3.76      41.8  T
   7    -22.4659387 -0.151815E-08  0.243E-04    3.76     110.1  T
     SCC iter.                  ...        0 min,  0.004 sec
     gradient                   ...        0 min,  0.001 sec
 * total energy  :   -22.2043521 Eh     change       -0.3312907E-04 Eh
   gradient norm :     0.0058157 Eh/α   predicted    -0.2308822E-04 ( -30.31%)
   displ. norm   :     0.0318947 α      lambda       -0.3774268E-04
   maximum displ.:     0.0284472 α      in ANC's #4, #5, #15, ...
 * RMSD in coord.:     0.1468604 α      energy gain  -0.6538620E+00 Eh

generating ANC from model Hessian ...
Using Lindh-Hessian (1995)
 Shifting diagonal of input Hessian by    1.1386114053367929E-002
 Lowest  eigenvalues of input Hessian
    0.010000    0.000000    0.000000    0.000000    0.000000    0.000000
    0.000000    0.012356    0.012879    0.015042    0.033125    0.037074
    0.050314    0.069176    0.072714    0.083978    0.091672    0.107354
 Highest eigenvalues
    1.441556    1.591849    1.822148    1.978739    4.555443   12.279258


........................................................................
.............................. CYCLE   21 ..............................
........................................................................

 iter      E             dE          RMSdq      gap      omega  full diag
   1    -22.4665052 -0.224665E+02  0.321E-02    3.77       0.0  T
   2    -22.4665053 -0.144158E-06  0.195E-02    3.77       1.4  T
   3    -22.4665053  0.263846E-07  0.228E-03    3.77      11.7  T
   4    -22.4665053  0.418821E-07  0.258E-03    3.77      10.4  T
   5    -22.4665054 -0.995754E-07  0.702E-04    3.77      38.0  T
   6    -22.4665054 -0.658670E-09  0.491E-04    3.77      54.5  T
     SCC iter.                  ...        0 min,  0.003 sec
     gradient                   ...        0 min,  0.001 sec
 * total energy  :   -22.2043787 Eh     change       -0.2655463E-04 Eh
   gradient norm :     0.0051132 Eh/α   predicted     0.0000000E+00 (-100.00%)
   displ. norm   :     0.0609367 α      lambda       -0.1009715E-03
   maximum displ.:     0.0480350 α      in ANC's #4, #3, #9, ...

........................................................................
.............................. CYCLE   22 ..............................
........................................................................

 iter      E             dE          RMSdq      gap      omega  full diag
   1    -22.4669158 -0.224669E+02  0.668E-02    3.78       0.0  T
   2    -22.4668945  0.213542E-04  0.562E-02    3.75       1.0  T
   3    -22.4669005 -0.598170E-05  0.470E-02    3.79       1.0  T
   4    -22.4669236 -0.231092E-04  0.860E-03    3.77       3.1  T
   5    -22.4669246 -0.977323E-06  0.138E-03    3.77      19.4  T
   6    -22.4669246 -0.273878E-08  0.669E-04    3.77      39.9  T
   7    -22.4669246 -0.984574E-09  0.252E-04    3.77     106.1  T
     SCC iter.                  ...        0 min,  0.004 sec
     gradient                   ...        0 min,  0.001 sec
 * total energy  :   -22.2044530 Eh     change       -0.7433380E-04 Eh
   gradient norm :     0.0054452 Eh/α   predicted    -0.5067174E-04 ( -31.83%)
   displ. norm   :     0.1180513 α      lambda       -0.1042063E-03
   maximum displ.:     0.0863416 α      in ANC's #4, #3, #2, ...

........................................................................
.............................. CYCLE   23 ..............................
........................................................................

 iter      E             dE          RMSdq      gap      omega  full diag
   1    -22.4670920 -0.224671E+02  0.111E-01    3.79       0.0  T
   2    -22.4670691  0.228670E-04  0.792E-02    3.76       1.0  T
   3    -22.4669669  0.102209E-03  0.960E-02    3.81       1.0  T
   4    -22.4671006 -0.133707E-03  0.998E-03    3.77       2.7  T
   5    -22.4671019 -0.129199E-05  0.237E-03    3.77      11.3  T
   6    -22.4671019 -0.959230E-08  0.138E-03    3.77      19.3  T
   7    -22.4671019 -0.606780E-08  0.520E-04    3.77      51.4  T
   8    -22.4671019 -0.243252E-08  0.191E-04    3.77     140.1  T
     SCC iter.                  ...        0 min,  0.004 sec
     gradient                   ...        0 min,  0.001 sec
 * total energy  :   -22.2044997 Eh     change       -0.4675188E-04 Eh
   gradient norm :     0.0128675 Eh/α   predicted    -0.5282787E-04 (  13.00%)
   displ. norm   :     0.0577638 α      lambda       -0.4938528E-04
   maximum displ.:     0.0521264 α      in ANC's #3, #4, #2, ...

........................................................................
.............................. CYCLE   24 ..............................
........................................................................

 iter      E             dE          RMSdq      gap      omega  full diag
   1    -22.4671326 -0.224671E+02  0.377E-02    3.79       0.0  T
   2    -22.4671273  0.534081E-05  0.291E-02    3.77       1.0  T
   3    -22.4671229  0.438923E-05  0.307E-02    3.79       1.0  T
   4    -22.4671347 -0.118118E-04  0.175E-03    3.78      15.3  T
   5    -22.4671347 -0.235529E-07  0.904E-04    3.78      29.6  T
   6    -22.4671347 -0.892388E-09  0.647E-04    3.78      41.3  T
     SCC iter.                  ...        0 min,  0.003 sec
     gradient                   ...        0 min,  0.001 sec
 * total energy  :   -22.2045281 Eh     change       -0.2837331E-04 Eh
   gradient norm :     0.0082585 Eh/α   predicted    -0.2477322E-04 ( -12.69%)
   displ. norm   :     0.0356005 α      lambda       -0.2987945E-04
   maximum displ.:     0.0339287 α      in ANC's #3, #9, #2, ...

........................................................................
.............................. CYCLE   25 ..............................
........................................................................

 iter      E             dE          RMSdq      gap      omega  full diag
   1    -22.4674461 -0.224674E+02  0.194E-02    3.79       0.0  T
   2    -22.4674439  0.215513E-05  0.151E-02    3.78       1.8  T
   3    -22.4674441 -0.200342E-06  0.156E-02    3.79       1.7  T
   4    -22.4674469 -0.274647E-05  0.241E-03    3.78      11.1  T
   5    -22.4674469 -0.697685E-07  0.794E-04    3.78      33.6  T
   6    -22.4674469 -0.328503E-08  0.337E-04    3.78      79.2  T
     SCC iter.                  ...        0 min,  0.003 sec
     gradient                   ...        0 min,  0.001 sec
 * total energy  :   -22.2045474 Eh     change       -0.1928603E-04 Eh
   gradient norm :     0.0053401 Eh/α   predicted    -0.1496087E-04 ( -22.43%)
   displ. norm   :     0.0563598 α      lambda       -0.1862696E-04
   maximum displ.:     0.0476064 α      in ANC's #3, #4, #2, ...

........................................................................
.............................. CYCLE   26 ..............................
........................................................................

 iter      E             dE          RMSdq      gap      omega  full diag
   1    -22.4672806 -0.224673E+02  0.423E-02    3.79       0.0  T
   2    -22.4672756  0.501614E-05  0.308E-02    3.78       1.0  T
   3    -22.4672639  0.117306E-04  0.370E-02    3.80       1.0  T
   4    -22.4672824 -0.185584E-04  0.147E-03    3.79      18.2  T
   5    -22.4672825 -0.128059E-07  0.904E-04    3.79      29.6  T
   6    -22.4672825  0.106628E-09  0.658E-04    3.79      40.6  T
     SCC iter.                  ...        0 min,  0.003 sec
     gradient                   ...        0 min,  0.001 sec
 * total energy  :   -22.2045614 Eh     change       -0.1400482E-04 Eh
   gradient norm :     0.0014838 Eh/α   predicted    -0.9344178E-05 ( -33.28%)
   displ. norm   :     0.0709649 α      lambda       -0.9310021E-05
   maximum displ.:     0.0615223 α      in ANC's #3, #4, #2, ...

........................................................................
.............................. CYCLE   27 ..............................
........................................................................

 iter      E             dE          RMSdq      gap      omega  full diag
   1    -22.4671734 -0.224672E+02  0.522E-02    3.80       0.0  T
   2    -22.4671655  0.798199E-05  0.380E-02    3.78       1.0  T
   3    -22.4671472  0.182056E-04  0.463E-02    3.81       1.0  T
   4    -22.4671762 -0.289258E-04  0.319E-03    3.79       8.4  T
   5    -22.4671763 -0.113668E-06  0.153E-03    3.79      17.5  T
   6    -22.4671763 -0.102461E-07  0.882E-04    3.79      30.3  T
   7    -22.4671763 -0.229031E-08  0.306E-04    3.79      87.3  T
     SCC iter.                  ...        0 min,  0.004 sec
     gradient                   ...        0 min,  0.001 sec
 * total energy  :   -22.2045698 Eh     change       -0.8422102E-05 Eh
   gradient norm :     0.0013837 Eh/α   predicted    -0.4664288E-05 ( -44.62%)
   displ. norm   :     0.0229845 α      lambda       -0.2452816E-05
   maximum displ.:     0.0222699 α      in ANC's #3, #1, #29, ...

........................................................................
.............................. CYCLE   28 ..............................
........................................................................

 iter      E             dE          RMSdq      gap      omega  full diag
   1    -22.4674434 -0.224674E+02  0.139E-02    3.80       0.0  T
   2    -22.4674422  0.120598E-05  0.112E-02    3.79       2.4  T
   3    -22.4674423 -0.150747E-06  0.113E-02    3.80       2.4  T
   4    -22.4674438 -0.144997E-05  0.183E-03    3.79      14.6  T
   5    -22.4674438 -0.401704E-07  0.591E-04    3.79      45.2  T
   6    -22.4674438 -0.165253E-08  0.331E-04    3.79      80.8  T
     SCC iter.                  ...        0 min,  0.003 sec
     gradient                   ...        0 min,  0.001 sec
 * total energy  :   -22.2045716 Eh     change       -0.1732284E-05 Eh
   gradient norm :     0.0004870 Eh/α   predicted    -0.1227740E-05 ( -29.13%)
   displ. norm   :     0.0114164 α      lambda       -0.4967612E-06
   maximum displ.:     0.0078583 α      in ANC's #3, #4, #1, ...

   *** GEOMETRY OPTIMIZATION CONVERGED AFTER 28 ITERATIONS ***

------------------------------------------------------------------------
 total energy gain   :        -0.6540814 Eh     -410.4423 kcal/mol
 total RMSD          :         0.1997742 a0        0.1057 Å
 total power (kW/mol):       -61.3318052 (step)********** (real)
------------------------------------------------------------------------

 ANCopt (total)                0 d,  0 h,  0 min,  0.163 sec
 optimizer setup                ...        0 min,  0.000 sec (  0.079%)
 model hessian                  ...        0 min,  0.005 sec (  3.116%)
 ANC generation                 ...        0 min,  0.001 sec (  0.451%)
 coordinate transformation      ...        0 min,  0.000 sec (  0.097%)
 single point calculation       ...        0 min,  0.146 sec ( 89.379%)
 optimization log               ...        0 min,  0.003 sec (  1.676%)
 hessian update                 ...        0 min,  0.000 sec (  0.192%)
 rational function              ...        0 min,  0.004 sec (  2.149%)

================
 final structure:
================
14
 xtb: 6.6.1 (8d0f1dd)
O           -2.50579008274196        0.51766033537013        1.71198171735534
O           -0.44967236765367       -0.29547148795142        0.81703269545901
C           -0.68512188679361        0.16919572804557       -0.46890393111327
C            0.17246279112165        0.91401420140370        0.47791586126445
C            1.55050248393846        0.43582328057988        0.26941505259970
C            1.41858370336281       -0.63239970128507       -0.51168267996120
C            0.17868601152228       -0.69184928303047       -1.34169693187316
H           -2.61808868798262       -0.13404014243991        2.40256895865739
H           -1.69008249057940        0.48300962161695       -0.70314308248879
H           -0.13778574213043        1.80327796603555        1.00036580715778
H            2.39490675450624        0.72154025367392        0.86500049487398
H            2.23962267890654       -1.29493047730036       -0.75009396880923
H            0.35818743634269       -0.29632064141473       -2.34318850265210
H           -0.22642060181886       -1.69939965330370       -1.42554149047004

 Bond Distances (Angstroems)
 ---------------------------
O1-H8=0.9562         O2-C3=1.3874         O2-C4=1.4018         C3-O2=1.3874         C3-C4=1.4787         C3-C7=1.4998         
C3-H9=1.0786         C4-O2=1.4018         C4-C3=1.4787         C4-C5=1.4735         C4-H10=1.0770        C5-C4=1.4735         
C5-C6=1.3299         C5-H11=1.0721        C6-C5=1.3299         C6-C7=1.4933         C6-H12=1.0816        C7-C3=1.4998         
C7-C6=1.4933         C7-H13=1.0916        C7-H14=1.0892        H8-O1=0.9562         H9-C3=1.0786         H10-C4=1.0770        
H11-C5=1.0721        H12-C6=1.0816        H13-C7=1.0916        H14-C7=1.0892        
 C  H  Rav=1.0817 sigma=0.0068  Rmin=1.0721  Rmax=1.0916     6
 C  C  Rav=1.4550 sigma=0.0633  Rmin=1.3299  Rmax=1.4998     5
 O  H  Rav=0.9562 sigma=0.0000  Rmin=0.9562  Rmax=0.9562     1
 O  C  Rav=1.3946 sigma=0.0072  Rmin=1.3874  Rmax=1.4018     2

 selected bond angles (degree)
 --------------------
C4-O2-C3= 64.03                C4-C3-O2= 58.45                C7-C3-O2=104.44                C7-C3-C4=109.13                
H9-C3-O2=117.18                H9-C3-C4=122.20                H9-C3-C7=125.26                C3-C4-O2= 57.51                
C5-C4-O2= 99.75                C5-C4-C3=106.76                H10-C4-O2=117.85               H10-C4-C3=124.01               
H10-C4-C5=127.30               C6-C5-C4=104.54                H11-C5-C4=124.86               H11-C5-C6=128.21               
C7-C6-C5=116.16                H12-C6-C5=123.11               H12-C6-C7=118.91               C6-C7-C3= 97.58                
H13-C7-C3=114.87               H13-C7-C6=111.04               H14-C7-C3=111.20               H14-C7-C6=112.86               
H14-C7-H13=109.01              

 selected dihedral angles (degree)
 ---------------------------------
C7-C3-O2-C4=103.83            H9-C3-O2-C4=247.19            C5-C4-O2-C3=256.26            H10-C4-O2-C3=114.43           
O2-C4-C3-C7=264.45            O2-C4-C3-H9=104.30            C5-C4-C3-O2= 91.02            C5-C4-C3-C7=355.47            
C5-C4-C3-H9=195.32            H10-C4-C3-O2=256.20           H10-C4-C3-C7=160.65           H10-C4-C3-H9=  0.50           
C6-C5-C4-O2= 48.07            C6-C5-C4-C3=349.23            C6-C5-C4-H10=184.69           H11-C5-C4-O2=244.48           
H11-C5-C4-C3=185.64           H11-C5-C4-H10= 21.10          C7-C6-C5-C4= 23.69            C7-C6-C5-H11=186.53           
H12-C6-C5-C4=188.08           H12-C6-C5-H11=350.92          C6-C7-C3-O2=314.74            C6-C7-C3-C4= 15.89            
C6-C7-C3-H9=175.29            H13-C7-C3-O2=197.29           H13-C7-C3-C4=258.44           H13-C7-C3-H9= 57.84           
H14-C7-C3-O2= 72.90           H14-C7-C3-C4=134.05           H14-C7-C3-H9=293.45           C3-C7-C6-C5=334.63            
C3-C7-C6-H12=169.56           H13-C7-C6-C5= 95.02           H13-C7-C6-H12=289.94          H14-C7-C6-C5=217.76           
H14-C7-C6-H12= 52.68          

 CMA Distance (Angstroems)
 ---------------------------
R(CMA):  3.4414
           -------------------------------------------------
          |                Final Singlepoint                |
           -------------------------------------------------

          ...................................................
          :                      SETUP                      :
          :.................................................:
          :  # basis functions                  35          :
          :  # atomic orbitals                  35          :
          :  # shells                           21          :
          :  # electrons                        39          :
          :  max. iterations                   250          :
          :  Hamiltonian                  GFN2-xTB          :
          :  restarted?                      false          :
          :  GBSA solvation                  false          :
          :  PC potential                    false          :
          :  electronic temp.          300.0000000     K    :
          :  accuracy                    1.0000000          :
          :  -> integral cutoff          0.2500000E+02      :
          :  -> integral neglect         0.1000000E-07      :
          :  -> SCF convergence          0.1000000E-05 Eh   :
          :  -> wf. convergence          0.1000000E-03 e    :
          :  Broyden damping             0.4000000          :
          ...................................................

 iter      E             dE          RMSdq      gap      omega  full diag
   1    -22.4674438 -0.224674E+02  0.122E-04    3.79       0.0  T
   2    -22.4674438  0.283453E-09  0.152E-04    3.79     175.7  T
   3    -22.4674438 -0.364611E-09  0.720E-05    3.79     371.1  T

   *** convergence criteria satisfied after 3 iterations ***

         #    Occupation            Energy/Eh            Energy/eV
      -------------------------------------------------------------
         1        2.0000           -0.7392419             -20.1158
       ...           ...                  ...                  ...
        14        2.0000           -0.4884981             -13.2927
        15        2.0000           -0.4801433             -13.0654
        16        2.0000           -0.4601684             -12.5218
        17        2.0000           -0.4399223             -11.9709
        18        2.0000           -0.4135040             -11.2520
        19        1.9999           -0.4017737             -10.9328
        20        1.0001           -0.3844806             -10.4623 (HOMO)
        21                         -0.2450499              -6.6681 (LUMO)
        22                         -0.0934962              -2.5442
        23                          0.0608979               1.6571
        24                          0.0737126               2.0058
        25                          0.0917040               2.4954
       ...                                ...                  ...
        35                          0.6288013              17.1106
      -------------------------------------------------------------
                  HL-Gap            0.1394308 Eh            3.7941 eV
             Fermi-level           -0.3539462 Eh           -9.6314 eV

 SCC (total)                   0 d,  0 h,  0 min,  0.003 sec
 SCC setup                      ...        0 min,  0.000 sec (  2.469%)
 Dispersion                     ...        0 min,  0.000 sec (  1.352%)
 classical contributions        ...        0 min,  0.000 sec (  0.225%)
 integral evaluation            ...        0 min,  0.000 sec (  8.079%)
 iterations                     ...        0 min,  0.002 sec ( 59.158%)
 molecular gradient             ...        0 min,  0.001 sec ( 23.306%)
 printout                       ...        0 min,  0.000 sec (  4.872%)

         :::::::::::::::::::::::::::::::::::::::::::::::::::::
         ::                     SUMMARY                     ::
         :::::::::::::::::::::::::::::::::::::::::::::::::::::
         :: total energy             -22.204571556403 Eh    ::
         :: gradient norm              0.000485388271 Eh/a0 ::
         :: HOMO-LUMO gap              3.794103893250 eV    ::
         ::.................................................::
         :: SCC energy               -22.467443804180 Eh    ::
         :: -> isotropic ES            0.052505981435 Eh    ::
         :: -> anisotropic ES         -0.004502330807 Eh    ::
         :: -> anisotropic XC          0.003964800236 Eh    ::
         :: -> dispersion             -0.008234200544 Eh    ::
         :: repulsion energy           0.262494059951 Eh    ::
         :: add. restraining           0.000365043447 Eh    ::
         :: total charge               0.000000000484 e     ::
         :::::::::::::::::::::::::::::::::::::::::::::::::::::

           -------------------------------------------------
          |                Property Printout                |
           -------------------------------------------------

    * Orbital Energies and Occupations

         #    Occupation            Energy/Eh            Energy/eV
      -------------------------------------------------------------
         1        2.0000           -0.7392419             -20.1158
       ...           ...                  ...                  ...
         8        2.0000           -0.5756382             -15.6639
         9        2.0000           -0.5453309             -14.8392
        10        2.0000           -0.5385774             -14.6554
        11        2.0000           -0.5248846             -14.2828
        12        2.0000           -0.4964135             -13.5081
        13        2.0000           -0.4911065             -13.3637
        14        2.0000           -0.4884981             -13.2927
        15        2.0000           -0.4801433             -13.0654
        16        2.0000           -0.4601684             -12.5218
        17        2.0000           -0.4399223             -11.9709
        18        2.0000           -0.4135040             -11.2520
        19        1.9999           -0.4017737             -10.9328
        20        1.0001           -0.3844806             -10.4623 (HOMO)
        21                         -0.2450499              -6.6681 (LUMO)
        22                         -0.0934962              -2.5442
        23                          0.0608979               1.6571
        24                          0.0737126               2.0058
        25                          0.0917040               2.4954
        26                          0.0957625               2.6058
        27                          0.1384860               3.7684
        28                          0.1762342               4.7956
        29                          0.2003088               5.4507
        30                          0.2110552               5.7431
        31                          0.2202828               5.9942
       ...                                ...                  ...
        35                          0.6288013              17.1106
      -------------------------------------------------------------
                  HL-Gap            0.1394308 Eh            3.7941 eV
             Fermi-level           -0.3539462 Eh           -9.6314 eV

     #   Z          covCN         q      C6AA      α(0)
     1   8 O        0.806    -0.531    24.500     6.635
     2   8 O        1.726    -0.225    17.734     5.686
     3   6 C        3.846     0.103    18.856     6.177
     4   6 C        3.865     0.098    18.921     6.186
     5   6 C        2.943    -0.038    28.955     8.825
     6   6 C        3.096    -0.010    28.156     8.696
     7   6 C        3.836    -0.068    21.782     6.640
     8   1 H        0.806     0.269     0.822     1.424
     9   1 H        0.926     0.081     1.973     2.197
    10   1 H        0.926     0.074     2.042     2.234
    11   1 H        0.926     0.062     2.174     2.306
    12   1 H        0.925     0.047     2.364     2.404
    13   1 H        0.924     0.063     2.166     2.301
    14   1 H        0.925     0.077     2.015     2.220

 Mol. C6AA /au·bohr⁶  :       1825.769387
 Mol. C8AA /au·bohr⁸  :      41395.782558
 Mol. α(0) /au        :         63.931378


Wiberg/Mayer (AO) data.
largest (>0.10) Wiberg bond orders for each atom

 ---------------------------------------------------------------------------
     #   Z sym  total        # sym  WBO       # sym  WBO       # sym  WBO
 ---------------------------------------------------------------------------
     1   8 O    1.318 --     8 H    0.927     2 O    0.248
     2   8 O    2.197 --     3 C    0.938     4 C    0.903     1 O    0.248
     3   6 C    3.893 --     7 C    0.999     9 H    0.957     4 C    0.946
                             2 O    0.938
     4   6 C    3.886 --     5 C    1.023    10 H    0.961     3 C    0.946
                             2 O    0.903
     5   6 C    3.980 --     6 C    1.845     4 C    1.023    11 H    0.967
     6   6 C    3.986 --     5 C    1.845     7 C    1.027    12 H    0.970
     7   6 C    3.995 --     6 C    1.027     3 C    0.999    14 H    0.956
                            13 H    0.951
     8   1 H    0.928 --     1 O    0.927
     9   1 H    0.993 --     3 C    0.957
    10   1 H    0.994 --     4 C    0.961
    11   1 H    0.996 --     5 C    0.967
    12   1 H    0.998 --     6 C    0.970
    13   1 H    0.996 --     7 C    0.951
    14   1 H    0.994 --     7 C    0.956
 ---------------------------------------------------------------------------

Topologies differ in total number of bonds
Writing topology from bond orders to xtbtopo.mol

molecular dipole:
                 x           y           z       tot (Debye)
 q only:        1.320      -0.173      -1.098
   full:        1.181      -0.285      -0.857       3.778
molecular quadrupole (traceless):
                xx          xy          yy          xz          yz          zz
 q only:       -4.393       3.529       2.277       4.417      -0.641       2.116
  q+dip:       -4.075       3.759       1.645       3.898       0.594       2.430
   full:       -4.180       3.981       1.351       3.264      -0.496       2.828

           -------------------------------------------------
          |                Geometry Summary                 |
           -------------------------------------------------

      molecular mass/u    :       99.1080746
   center of mass at/Å    :       -0.1545092       0.0552348       0.2077003
  moments of inertia/u·Å² :        0.8265771E+02   0.2566280E+03   0.2996416E+03
rotational constants/cm⁻¹ :        0.2039451E+00   0.6568899E-01   0.5625931E-01

 * 13 selected distances

     #   Z          #   Z                                           value/Å
     2   8 O        3   6 C                                       1.3874385
     2   8 O        4   6 C                                       1.4017519
     3   6 C        4   6 C                                       1.4787407
     4   6 C        5   6 C                                       1.4734765
     5   6 C        6   6 C                                       1.3298936
     3   6 C        7   6 C                                       1.4997769 (max)
     6   6 C        7   6 C                                       1.4932530
     3   6 C        9   1 H                                       1.0785607
     4   6 C       10   1 H                                       1.0770322
     5   6 C       11   1 H                                       1.0720891 (min)
     6   6 C       12   1 H                                       1.0816155
     7   6 C       13   1 H                                       1.0916269
     7   6 C       14   1 H                                       1.0891737

 * 3 distinct bonds (by element types)

   Z      Z             #   av. dist./Å        max./Å        min./Å
   1 H    6 C           6     1.0816830     1.0916269     1.0720891
   6 C    6 C           5     1.4550281     1.4997769     1.3298936
   6 C    8 O           2     1.3945952     1.4017519     1.3874385


optimized geometry written to: xtbopt.xyz


           -------------------------------------------------
          | TOTAL ENERGY              -22.204571556403 Eh   |
          | GRADIENT NORM               0.000485388271 Eh/α |
          | HOMO-LUMO GAP               3.794103893250 eV   |
           -------------------------------------------------

------------------------------------------------------------------------
 * finished run on 2025/05/23 at 12:05:46.348     
------------------------------------------------------------------------
 total:
 * wall-time:     0 d,  0 h,  0 min,  0.186 sec
 *  cpu-time:     0 d,  0 h,  0 min,  2.769 sec
 * ratio c/w:    14.925 speedup
 SCF:
 * wall-time:     0 d,  0 h,  0 min,  0.010 sec
 *  cpu-time:     0 d,  0 h,  0 min,  0.161 sec
 * ratio c/w:    15.713 speedup
 ANC optimizer:
 * wall-time:     0 d,  0 h,  0 min,  0.168 sec
 *  cpu-time:     0 d,  0 h,  0 min,  2.501 sec
 * ratio c/w:    14.934 speedup

