
                                 *****************
                                 * O   R   C   A *
                                 *****************

                                            #,                                       
                                            ###                                      
                                            ####                                     
                                            #####                                    
                                            ######                                   
                                           ########,                                 
                                     ,,################,,,,,                         
                               ,,#################################,,                 
                          ,,##########################################,,             
                       ,#########################################, ''#####,          
                    ,#############################################,,   '####,        
                  ,##################################################,,,,####,       
                ,###########''''           ''''###############################       
              ,#####''   ,,,,##########,,,,          '''####'''          '####       
            ,##' ,,,,###########################,,,                        '##       
           ' ,,###''''                  '''############,,,                           
         ,,##''                                '''############,,,,        ,,,,,,###''
      ,#''                                            '''#######################'''  
     '                                                          ''''####''''         
             ,#######,   #######,   ,#######,      ##                                
            ,#'     '#,  ##    ##  ,#'     '#,    #''#        ######   ,####,        
            ##       ##  ##   ,#'  ##            #'  '#       #        #'  '#        
            ##       ##  #######   ##           ,######,      #####,   #    #        
            '#,     ,#'  ##    ##  '#,     ,#' ,#      #,         ##   #,  ,#        
             '#######'   ##     ##  '#######'  #'      '#     #####' # '####'        



                  #######################################################
                  #                        -***-                        #
                  #          Department of theory and spectroscopy      #
                  #    Directorship and core code : Frank Neese         #
                  #        Max Planck Institute fuer Kohlenforschung    #
                  #                Kaiser Wilhelm Platz 1               #
                  #                 D-45470 Muelheim/Ruhr               #
                  #                      Germany                        #
                  #                                                     #
                  #                  All rights reserved                #
                  #                        -***-                        #
                  #######################################################


                         Program Version 5.0.4 -  RELEASE  -


 With contributions from (in alphabetic order):
   Daniel Aravena         : Magnetic Suceptibility
   Michael Atanasov       : Ab Initio Ligand Field Theory (pilot matlab implementation)
   Alexander A. Auer      : GIAO ZORA, VPT2 properties, NMR spectrum
   Ute Becker             : Parallelization
   Giovanni Bistoni       : ED, misc. LED, open-shell LED, HFLD
   Martin Brehm           : Molecular dynamics
   Dmytro Bykov           : SCF Hessian
   Vijay G. Chilkuri      : MRCI spin determinant printing, contributions to CSF-ICE
   Dipayan Datta          : RHF DLPNO-CCSD density
   Achintya Kumar Dutta   : EOM-CC, STEOM-CC
   Dmitry Ganyushin       : Spin-Orbit,Spin-Spin,Magnetic field MRCI
   Miquel Garcia          : C-PCM and meta-GGA Hessian, CC/C-PCM, Gaussian charge scheme
   Yang Guo               : DLPNO-NEVPT2, F12-NEVPT2, CIM, IAO-localization
   Andreas Hansen         : Spin unrestricted coupled pair/coupled cluster methods
   Benjamin Helmich-Paris : MC-RPA, TRAH-SCF, COSX integrals
   Lee Huntington         : MR-EOM, pCC
   Robert Izsak           : Overlap fitted RIJCOSX, COSX-SCS-MP3, EOM
   Marcus Kettner         : VPT2
   Christian Kollmar      : KDIIS, OOCD, Brueckner-CCSD(T), CCSD density, CASPT2, CASPT2-K
   Simone Kossmann        : Meta GGA functionals, TD-DFT gradient, OOMP2, MP2 Hessian
   Martin Krupicka        : Initial AUTO-CI
   Lucas Lang             : DCDCAS
   Marvin Lechner         : AUTO-CI (C++ implementation), FIC-MRCC
   Dagmar Lenk            : GEPOL surface, SMD
   Dimitrios Liakos       : Extrapolation schemes; Compound Job, initial MDCI parallelization
   Dimitrios Manganas     : Further ROCIS development; embedding schemes
   Dimitrios Pantazis     : SARC Basis sets
   Anastasios Papadopoulos: AUTO-CI, single reference methods and gradients
   Taras Petrenko         : DFT Hessian,TD-DFT gradient, ASA, ECA, R-Raman, ABS, FL, XAS/XES, NRVS
   Peter Pinski           : DLPNO-MP2, DLPNO-MP2 Gradient
   Christoph Reimann      : Effective Core Potentials
   Marius Retegan         : Local ZFS, SOC
   Christoph Riplinger    : Optimizer, TS searches, QM/MM, DLPNO-CCSD(T), (RO)-DLPNO pert. Triples
   Tobias Risthaus        : Range-separated hybrids, TD-DFT gradient, RPA, STAB
   Michael Roemelt        : Original ROCIS implementation
   Masaaki Saitow         : Open-shell DLPNO-CCSD energy and density
   Barbara Sandhoefer     : DKH picture change effects
   Avijit Sen             : IP-ROCIS
   Kantharuban Sivalingam : CASSCF convergence, NEVPT2, FIC-MRCI
   Bernardo de Souza      : ESD, SOC TD-DFT
   Georgi Stoychev        : AutoAux, RI-MP2 NMR, DLPNO-MP2 response
   Willem Van den Heuvel  : Paramagnetic NMR
   Boris Wezisla          : Elementary symmetry handling
   Frank Wennmohs         : Technical directorship


 We gratefully acknowledge several colleagues who have allowed us to
 interface, adapt or use parts of their codes:
   Stefan Grimme, W. Hujo, H. Kruse, P. Pracht,  : VdW corrections, initial TS optimization,
                  C. Bannwarth, S. Ehlert          DFT functionals, gCP, sTDA/sTD-DF
   Ed Valeev, F. Pavosevic, A. Kumar             : LibInt (2-el integral package), F12 methods
   Garnet Chan, S. Sharma, J. Yang, R. Olivares  : DMRG
   Ulf Ekstrom                                   : XCFun DFT Library
   Mihaly Kallay                                 : mrcc  (arbitrary order and MRCC methods)
   Jiri Pittner, Ondrej Demel                    : Mk-CCSD
   Frank Weinhold                                : gennbo (NPA and NBO analysis)
   Christopher J. Cramer and Donald G. Truhlar   : smd solvation model
   Lars Goerigk                                  : TD-DFT with DH, B97 family of functionals
   V. Asgeirsson, H. Jonsson                     : NEB implementation
   FAccTs GmbH                                   : IRC, NEB, NEB-TS, DLPNO-Multilevel, CI-OPT
                                                   MM, QMMM, 2- and 3-layer-ONIOM, Crystal-QMMM,
                                                   LR-CPCM, SF, NACMEs, symmetry and pop. for TD-DFT,
                                                   nearIR, NL-DFT gradient (VV10), updates on ESD,
                                                   ML-optimized integration grids
   S Lehtola, MJT Oliveira, MAL Marques          : LibXC Library
   Liviu Ungur et al                             : ANISO software


 Your calculation uses the libint2 library for the computation of 2-el integrals
 For citations please refer to: http://libint.valeyev.net

 Your ORCA version has been built with support for libXC version: 5.1.0
 For citations please refer to: https://tddft.org/programs/libxc/

 This ORCA versions uses:
   CBLAS   interface :  Fast vector & matrix operations
   LAPACKE interface :  Fast linear algebra routines
   SCALAPACK package :  Parallel linear algebra routines
   Shared memory     :  Shared parallel matrices
   BLAS/LAPACK       :  OpenBLAS 0.3.15  USE64BITINT DYNAMIC_ARCH NO_AFFINITY SkylakeX SINGLE_THREADED
        Core in use  :  SkylakeX
   Copyright (c) 2011-2014, The OpenBLAS Project


Your calculation utilizes the atom-pairwise dispersion correction
with the Becke-Johnson damping scheme (D3BJ)
Cite in your paper:
S.Grimme, S.Ehrlich, L.Goerigk, J Comput Chem, (2011), 32, 1456–1465 
S.Grimme, J.Antony, S.Ehrlich and H.Krieg, J.Chem.Phys., 132, (2010), 154104 
   

================================================================================

----- Orbital basis set information -----
Your calculation utilizes the basis: def2-SVP
   F. Weigend and R. Ahlrichs, Phys. Chem. Chem. Phys. 7, 3297 (2005).

----- AuxJ basis set information -----
Your calculation utilizes the auxiliary basis: def2/J
   F. Weigend, Phys. Chem. Chem. Phys. 8, 1057 (2006).

================================================================================
                                        WARNINGS
                       Please study these warnings very carefully!
================================================================================


WARNING: your system is open-shell and RHF/RKS was chosen
  ===> : WILL SWITCH to UHF/UKS


INFO   : the flag for use of the SHARK integral package has been found!

================================================================================
                                       INPUT FILE
================================================================================
NAME = 6_0_orca.inp
|  1> ! EnGrad PBE0 RIJCOSX D3BJ def2-SVP def2/J 
|  2> %output 
|  3> xyzfile=True 
|  4> end 
|  5> %scf 
|  6> maxiter 250 
|  7> end
|  8> %output
|  9> Print[P_Hirshfeld] = 1
| 10> end
| 11> % maxcore
| 12> 4000
| 13> *xyz 0 2
| 14> O   -2.23194936  -0.89446533   1.09448714 
| 15> O   -0.70500362   0.04999842   0.98377157 
| 16> C   -0.66413939   0.52785607  -0.31644492 
| 17> C    0.47334684   1.35635140   0.19272770 
| 18> C    1.59192290   0.49838037   0.22708127 
| 19> C    1.22258174  -0.70105726  -0.33556634 
| 20> C   -0.06166032  -0.61769035  -1.09215016 
| 21> H   -2.23257191  -0.79713248   2.05951128 
| 22> H   -1.58067369   1.01868540  -0.67196681 
| 23> H    0.36381974   2.34312992   0.64305600 
| 24> H    2.53786484   0.70163553   0.73033325 
| 25> H    1.87177444  -1.58018965  -0.36281047 
| 26> H    0.12032903  -0.40337106  -2.16071551 
| 27> H   -0.70564919  -1.50203303  -0.99133196 
| 28> *
| 29> 
| 30>                          ****END OF INPUT****
================================================================================

                     *******************************
                     * Energy+Gradient Calculation *
                     *******************************

---------------------------------
CARTESIAN COORDINATES (ANGSTROEM)
---------------------------------
  O     -2.231949   -0.894465    1.094487
  O     -0.705004    0.049998    0.983772
  C     -0.664139    0.527856   -0.316445
  C      0.473347    1.356351    0.192728
  C      1.591923    0.498380    0.227081
  C      1.222582   -0.701057   -0.335566
  C     -0.061660   -0.617690   -1.092150
  H     -2.232572   -0.797132    2.059511
  H     -1.580674    1.018685   -0.671967
  H      0.363820    2.343130    0.643056
  H      2.537865    0.701636    0.730333
  H      1.871774   -1.580190   -0.362810
  H      0.120329   -0.403371   -2.160716
  H     -0.705649   -1.502033   -0.991332

----------------------------
CARTESIAN COORDINATES (A.U.)
----------------------------
  NO LB      ZA    FRAG     MASS         X           Y           Z
   0 O     8.0000    0    15.999   -4.217773   -1.690295    2.068281
   1 O     8.0000    0    15.999   -1.332264    0.094483    1.859059
   2 C     6.0000    0    12.011   -1.255042    0.997503   -0.597994
   3 C     6.0000    0    12.011    0.894496    2.563133    0.364203
   4 C     6.0000    0    12.011    3.008298    0.941802    0.429121
   5 C     6.0000    0    12.011    2.310345   -1.324806   -0.634128
   6 C     6.0000    0    12.011   -0.116521   -1.167266   -2.063865
   7 H     1.0000    0     1.008   -4.218949   -1.506362    3.891912
   8 H     1.0000    0     1.008   -2.987040    1.925036   -1.269833
   9 H     1.0000    0     1.008    0.687520    4.427874    1.215200
  10 H     1.0000    0     1.008    4.795870    1.325899    1.380130
  11 H     1.0000    0     1.008    3.537141   -2.986126   -0.685612
  12 H     1.0000    0     1.008    0.227389   -0.762261   -4.083161
  13 H     1.0000    0     1.008   -1.333484   -2.838431   -1.873346

--------------------------------
INTERNAL COORDINATES (ANGSTROEM)
--------------------------------
 O      0   0   0     0.000000000000     0.00000000     0.00000000
 O      1   0   0     1.798842129095     0.00000000     0.00000000
 C      2   1   0     1.385850186645   105.29654480     0.00000000
 C      3   2   1     1.496507999387    83.92043648   169.43102240
 C      4   3   2     1.410144268540   105.92534641    79.13755917
 C      5   4   3     1.375367534068   107.91582413     5.67048920
 C      6   5   4     1.492865294339   112.93198854    14.45570219
 H      1   2   3     0.969920441088    90.52104976   201.65008343
 H      3   2   1     1.098792231741   115.65779881    49.22556499
 H      4   3   2     1.090194299631   124.42195504   271.29499643
 H      5   4   3     1.090587625682   125.86485530   193.19946454
 H      6   5   4     1.093191274892   123.50733546   185.34912219
 H      7   6   5     1.104936554197   111.05479216    92.81812280
 H      7   6   5     1.098611828538   114.38124910   217.99854280

---------------------------
INTERNAL COORDINATES (A.U.)
---------------------------
 O      0   0   0     0.000000000000     0.00000000     0.00000000
 O      1   0   0     3.399318982150     0.00000000     0.00000000
 C      2   1   0     2.618877315403   105.29654480     0.00000000
 C      3   2   1     2.827990276064    83.92043648   169.43102240
 C      4   3   2     2.664786476859   105.92534641    79.13755917
 C      5   4   3     2.599067972876   107.91582413     5.67048920
 C      6   5   4     2.821106561136   112.93198854    14.45570219
 H      1   2   3     1.832884005348    90.52104976   201.65008343
 H      3   2   1     2.076416396070   115.65779881    49.22556499
 H      4   3   2     2.060168659065   124.42195504   271.29499643
 H      5   4   3     2.060911937583   125.86485530   193.19946454
 H      6   5   4     2.065832121538   123.50733546   185.34912219
 H      7   6   5     2.088027482790   111.05479216    92.81812280
 H      7   6   5     2.076075483424   114.38124910   217.99854280

---------------------
BASIS SET INFORMATION
---------------------
There are 3 groups of distinct atoms

 Group   1 Type O   : 7s4p1d contracted to 3s2p1d pattern {511/31/1}
 Group   2 Type C   : 7s4p1d contracted to 3s2p1d pattern {511/31/1}
 Group   3 Type H   : 4s1p contracted to 2s1p pattern {31/1}

Atom   0O    basis set group =>   1
Atom   1O    basis set group =>   1
Atom   2C    basis set group =>   2
Atom   3C    basis set group =>   2
Atom   4C    basis set group =>   2
Atom   5C    basis set group =>   2
Atom   6C    basis set group =>   2
Atom   7H    basis set group =>   3
Atom   8H    basis set group =>   3
Atom   9H    basis set group =>   3
Atom  10H    basis set group =>   3
Atom  11H    basis set group =>   3
Atom  12H    basis set group =>   3
Atom  13H    basis set group =>   3
---------------------------------
AUXILIARY/J BASIS SET INFORMATION
---------------------------------
There are 3 groups of distinct atoms

 Group   1 Type O   : 12s5p4d2f1g contracted to 6s4p3d1f1g pattern {711111/2111/211/2/1}
 Group   2 Type C   : 12s5p4d2f1g contracted to 6s4p3d1f1g pattern {711111/2111/211/2/1}
 Group   3 Type H   : 5s2p1d contracted to 3s1p1d pattern {311/2/1}

Atom   0O    basis set group =>   1
Atom   1O    basis set group =>   1
Atom   2C    basis set group =>   2
Atom   3C    basis set group =>   2
Atom   4C    basis set group =>   2
Atom   5C    basis set group =>   2
Atom   6C    basis set group =>   2
Atom   7H    basis set group =>   3
Atom   8H    basis set group =>   3
Atom   9H    basis set group =>   3
Atom  10H    basis set group =>   3
Atom  11H    basis set group =>   3
Atom  12H    basis set group =>   3
Atom  13H    basis set group =>   3
------------------------------------------------------------------------------
                           ORCA GTO INTEGRAL CALCULATION
                           -- RI-GTO INTEGRALS CHOSEN --
------------------------------------------------------------------------------
------------------------------------------------------------------------------
                   ___                                                        
                  /   \      - P O W E R E D   B Y -                         
                 /     \                                                     
                 |  |  |   _    _      __       _____    __    __             
                 |  |  |  | |  | |    /  \     |  _  \  |  |  /  |          
                  \  \/   | |  | |   /    \    | | | |  |  | /  /          
                 / \  \   | |__| |  /  /\  \   | |_| |  |  |/  /          
                |  |  |   |  __  | /  /__\  \  |    /   |      \           
                |  |  |   | |  | | |   __   |  |    \   |  |\   \          
                \     /   | |  | | |  |  |  |  | |\  \  |  | \   \       
                 \___/    |_|  |_| |__|  |__|  |_| \__\ |__|  \__/        
                                                                              
                      - O R C A' S   B I G   F R I E N D -                    
                                      &                                       
                       - I N T E G R A L  F E E D E R -                       
                                                                              
 v1 FN, 2020, v2 2021                                                         
------------------------------------------------------------------------------


Reading SHARK input file 6_0_orca.SHARKINP.tmp ... ok
----------------------
SHARK INTEGRAL PACKAGE
----------------------

Number of atoms                             ...     14
Number of basis functions                   ...    133
Number of shells                            ...     63
Maximum angular momentum                    ...      2
Integral batch strategy                     ... SHARK/LIBINT Hybrid
RI-J (if used) integral strategy            ... SPLIT-RIJ (Revised 2003 algorithm where possible)
Printlevel                                  ...      1
Contraction scheme used                     ... SEGMENTED contraction
Coulomb Range Separation                    ... NOT USED
Exchange Range Separation                   ... NOT USED
Finite Nucleus Model                        ... NOT USED
Auxiliary Coulomb fitting basis             ... AVAILABLE
   # of basis functions in Aux-J            ...    420
   # of shells in Aux-J                     ...    140
   Maximum angular momentum in Aux-J        ...      4
Auxiliary J/K fitting basis                 ... NOT available
Auxiliary Correlation fitting basis         ... NOT available
Auxiliary 'external' fitting basis          ... NOT available
Integral threshold                          ...     2.500000e-11
Primitive cut-off                           ...     2.500000e-12
Primitive pair pre-selection threshold      ...     2.500000e-12

Calculating pre-screening integrals         ... done (  0.0 sec) Dimension = 63
Organizing shell pair data                  ... done (  0.0 sec)
Shell pair information
Total number of shell pairs                 ...      2016
Shell pairs after pre-screening             ...      1961
Total number of primitive shell pairs       ...      7252
Primitive shell pairs kept                  ...      5377
          la=0 lb=0:    608 shell pairs
          la=1 lb=0:    717 shell pairs
          la=1 lb=1:    226 shell pairs
          la=2 lb=0:    237 shell pairs
          la=2 lb=1:    145 shell pairs
          la=2 lb=2:     28 shell pairs

Calculating one electron integrals          ... done (  0.0 sec)
Calculating RI/J V-Matrix + Cholesky decomp.... done (  0.1 sec)
Calculating Nuclear repulsion               ... done (  0.0 sec) ENN=    302.977487091162 Eh

SHARK setup successfully completed in   0.5 seconds

Maximum memory used throughout the entire GTOINT-calculation: 17.0 MB
-------------------------------------------------------------------------------
                                 ORCA SCF
-------------------------------------------------------------------------------

------------
SCF SETTINGS
------------
Hamiltonian:
 Density Functional     Method          .... DFT(GTOs)
 Exchange Functional    Exchange        .... PBE
   PBE kappa parameter   XKappa         ....  0.804000
   PBE mue parameter    XMuePBE         ....  0.219520
 Correlation Functional Correlation     .... PBE
   PBE beta parameter  CBetaPBE         ....  0.066725
 LDA part of GGA corr.  LDAOpt          .... PW91-LDA
 Gradients option       PostSCFGGA      .... off
 Hybrid DFT is turned on
   Fraction HF Exchange ScalHFX         ....  0.250000
   Scaling of DF-GGA-X  ScalDFX         ....  0.750000
   Scaling of DF-GGA-C  ScalDFC         ....  1.000000
   Scaling of DF-LDA-C  ScalLDAC        ....  1.000000
   Perturbative correction              ....  0.000000
   Density functional embedding theory  .... OFF
   NL short-range parameter             ....  6.900000
 RI-approximation to the Coulomb term is turned on
   Number of AuxJ basis functions       .... 420
   RIJ-COSX (HFX calculated with COS-X)).... on


General Settings:
 Integral files         IntName         .... 6_0_orca
 Hartree-Fock type      HFTyp           .... UHF
 Total Charge           Charge          ....    0
 Multiplicity           Mult            ....    2
 Number of Electrons    NEL             ....   53
 Basis Dimension        Dim             ....  133
 Nuclear Repulsion      ENuc            ....    302.9774870912 Eh

Convergence Acceleration:
 DIIS                   CNVDIIS         .... on
   Start iteration      DIISMaxIt       ....    12
   Startup error        DIISStart       ....  0.200000
   # of expansion vecs  DIISMaxEq       ....     5
   Bias factor          DIISBfac        ....   1.050
   Max. coefficient     DIISMaxC        ....  10.000
 Trust-Rad. Augm. Hess. CNVTRAH         .... auto
   Auto Start mean grad. ratio tolernc. ....  1.125000
   Auto Start start iteration           ....    20
   Auto Start num. interpolation iter.  ....    10
   Max. Number of Micro iterations      ....    16
   Max. Number of Macro iterations      .... Maxiter - #DIIS iter
   Number of Davidson start vectors     ....     2
   Converg. threshold I  (grad. norm)   ....   1.000e-05
   Converg. threshold II (energy diff.) ....   1.000e-08
   Grad. Scal. Fac. for Micro threshold ....   0.100
   Minimum threshold for Micro iter.    ....   0.010
   NR start threshold (gradient norm)   ....   0.001
   Initial trust radius                 ....   0.400
   Minimum AH scaling param. (alpha)    ....   1.000
   Maximum AH scaling param. (alpha)    .... 1000.000
   Orbital update algorithm             .... Taylor
   White noise on init. David. guess    .... on
   Maximum white noise                  ....   0.010
   Quad. conv. algorithm                .... NR
 SOSCF                  CNVSOSCF        .... off
 Level Shifting         CNVShift        .... on
   Level shift para.    LevelShift      ....    0.2500
   Turn off err/grad.   ShiftErr        ....    0.0010
 Zerner damping         CNVZerner       .... off
 Static damping         CNVDamp         .... on
   Fraction old density DampFac         ....    0.7000
   Max. Damping (<1)    DampMax         ....    0.9800
   Min. Damping (>=0)   DampMin         ....    0.0000
   Turn off err/grad.   DampErr         ....    0.1000
 Fernandez-Rico         CNVRico         .... off

SCF Procedure:
 Maximum # iterations   MaxIter         ....   250
 SCF integral mode      SCFMode         .... Direct
   Integral package                     .... SHARK and LIBINT hybrid scheme
 Reset frequency        DirectResetFreq ....    20
 Integral Threshold     Thresh          ....  2.500e-11 Eh
 Primitive CutOff       TCut            ....  2.500e-12 Eh

Convergence Tolerance:
 Convergence Check Mode ConvCheckMode   .... Total+1el-Energy
 Convergence forced     ConvForced      .... 0
 Energy Change          TolE            ....  1.000e-08 Eh
 1-El. energy change                    ....  1.000e-05 Eh
 DIIS Error             TolErr          ....  5.000e-07


Diagonalization of the overlap matrix:
Smallest eigenvalue                        ... 8.269e-04
Time for diagonalization                   ...    0.018 sec
Threshold for overlap eigenvalues          ... 1.000e-08
Number of eigenvalues below threshold      ... 0
Time for construction of square roots      ...    0.001 sec
Total time needed                          ...    0.018 sec

Time for model grid setup =    0.137 sec

------------------------------
INITIAL GUESS: MODEL POTENTIAL
------------------------------
Loading Hartree-Fock densities                     ... done
Calculating cut-offs                               ... done
Initializing the effective Hamiltonian             ... done
Setting up the integral package (SHARK)            ... done
Starting the Coulomb interaction                   ... done (   0.1 sec)
Reading the grid                                   ... done
Mapping shells                                     ... done
Starting the XC term evaluation                    ... done (   0.1 sec)
  promolecular density results
     # of electrons  =     52.996257286
     EX              =    -43.853396534
     EC              =     -1.754552478
     EX+EC           =    -45.607949012
Transforming the Hamiltonian                       ... done (   0.0 sec)
Diagonalizing the Hamiltonian                      ... done (   0.0 sec)
Back transforming the eigenvectors                 ... done (   0.0 sec)
Now organizing SCF variables                       ... done
                      ------------------
                      INITIAL GUESS DONE (   0.4 sec)
                      ------------------
-------------------
DFT GRID GENERATION
-------------------

General Integration Accuracy     IntAcc      ... 4.388
Radial Grid Type                 RadialGrid  ... OptM3 with GC (2021)
Angular Grid (max. ang.)         AngularGrid ... 4 (Lebedev-302)
Angular grid pruning method      GridPruning ... 4 (adaptive)
Weight generation scheme         WeightScheme... Becke
Basis function cutoff            BFCut       ... 1.0000e-11
Integration weight cutoff        WCut        ... 1.0000e-14
Angular grids for H and He will be reduced by one unit
Partially contracted basis set               ... off
Rotationally invariant grid construction     ... off

Total number of grid points                  ...    64838
Total number of batches                      ...     1021
Average number of points per batch           ...       63
Average number of grid points per atom       ...     4631
Time for grid setup =    0.492 sec

--------------------
COSX GRID GENERATION
--------------------

GRIDX 1
-------
General Integration Accuracy     IntAcc      ... 3.816
Radial Grid Type                 RadialGrid  ... OptM3 with GC (2021)
Angular Grid (max. ang.)         AngularGrid ... 1 (Lebedev-50)
Angular grid pruning method      GridPruning ... 4 (adaptive)
Weight generation scheme         WeightScheme... Becke
Basis function cutoff            BFCut       ... 1.0000e-11
Integration weight cutoff        WCut        ... 1.0000e-14
Angular grids for H and He will be reduced by one unit
Partially contracted basis set               ... on
Rotationally invariant grid construction     ... off

Total number of grid points                  ...     8290
Total number of batches                      ...      136
Average number of points per batch           ...       60
Average number of grid points per atom       ...      592
UseSFitting                                  ... on

GRIDX 2
-------
General Integration Accuracy     IntAcc      ... 4.020
Radial Grid Type                 RadialGrid  ... OptM3 with GC (2021)
Angular Grid (max. ang.)         AngularGrid ... 2 (Lebedev-110)
Angular grid pruning method      GridPruning ... 4 (adaptive)
Weight generation scheme         WeightScheme... Becke
Basis function cutoff            BFCut       ... 1.0000e-11
Integration weight cutoff        WCut        ... 1.0000e-14
Angular grids for H and He will be reduced by one unit
Partially contracted basis set               ... on
Rotationally invariant grid construction     ... off

Total number of grid points                  ...    18035
Total number of batches                      ...      289
Average number of points per batch           ...       62
Average number of grid points per atom       ...     1288
UseSFitting                                  ... on

GRIDX 3
-------
General Integration Accuracy     IntAcc      ... 4.338
Radial Grid Type                 RadialGrid  ... OptM3 with GC (2021)
Angular Grid (max. ang.)         AngularGrid ... 3 (Lebedev-194)
Angular grid pruning method      GridPruning ... 4 (adaptive)
Weight generation scheme         WeightScheme... Becke
Basis function cutoff            BFCut       ... 1.0000e-11
Integration weight cutoff        WCut        ... 1.0000e-14
Angular grids for H and He will be reduced by one unit
Partially contracted basis set               ... on
Rotationally invariant grid construction     ... off

Total number of grid points                  ...    39611
Total number of batches                      ...      625
Average number of points per batch           ...       63
Average number of grid points per atom       ...     2829
UseSFitting                                  ... on

Time for X-Grid setup             =    0.561 sec

--------------
SCF ITERATIONS
--------------
ITER       Energy         Delta-E        Max-DP      RMS-DP      [F,P]     Damp
               ***  Starting incremental Fock matrix formation  ***
  0   -344.1603581802   0.000000000000 0.05160792  0.00136353  0.1374273 0.7000
  1   -344.2394642027  -0.079106022481 0.03074935  0.00091277  0.0489233 0.7000
                               ***Turning on DIIS***
  2   -344.2679507081  -0.028486505404 0.03319888  0.00151333  0.0167210 0.0000
  3   -344.3169625612  -0.049011853111 0.02848537  0.00077240  0.0324234 0.0000
  4   -344.3280633685  -0.011100807347 0.00892571  0.00028734  0.0133523 0.0000
  5   -344.3299848132  -0.001921444700 0.00591191  0.00015172  0.0060419 0.0000
  6   -344.3308260666  -0.000841253406 0.00697723  0.00016243  0.0047153 0.0000
  7   -344.3315512148  -0.000725148214 0.00587613  0.00014138  0.0036875 0.0000
  8   -344.3321092934  -0.000558078534 0.00778924  0.00017108  0.0030840 0.0000
  9   -344.3326014838  -0.000492190390 0.00443245  0.00009889  0.0019519 0.0000
 10   -344.3328051574  -0.000203673616 0.00442031  0.00008896  0.0015326 0.0000
 11   -344.3329331698  -0.000128012434 0.00590337  0.00012837  0.0009891 0.0000
               *** Restarting incremental Fock matrix formation ***
                                   *** Resetting DIIS ***
 12   -344.3329789157  -0.000045745925 0.00126905  0.00003327  0.0006015 0.0000
 13   -344.3329826031  -0.000003687358 0.00060890  0.00001808  0.0004466 0.0000
 14   -344.3329892048  -0.000006601737 0.00112727  0.00001527  0.0004835 0.0000
 15   -344.3329921480  -0.000002943206 0.00082899  0.00001328  0.0003612 0.0000
 16   -344.3329945579  -0.000002409851 0.00124817  0.00001732  0.0002452 0.0000
 17   -344.3329960045  -0.000001446658 0.00034324  0.00000517  0.0000624 0.0000
 18   -344.3329961789  -0.000000174308 0.00013371  0.00000215  0.0000324 0.0000
 19   -344.3329962157  -0.000000036881 0.00009982  0.00000152  0.0000235 0.0000
 20   -344.3329962310  -0.000000015303 0.00005039  0.00000090  0.0000151 0.0000
 21   -344.3329962417  -0.000000010659 0.00004814  0.00000079  0.0000099 0.0000
 22   -344.3329962454  -0.000000003708 0.00001889  0.00000040  0.0000079 0.0000
 23   -344.3329962479  -0.000000002542 0.00002137  0.00000033  0.0000060 0.0000
 24   -344.3329962481  -0.000000000111 0.00001420  0.00000024  0.0000035 0.0000
 25   -344.3329962508  -0.000000002732 0.00000412  0.00000010  0.0000018 0.0000
                 **** Energy Check signals convergence ****

               *****************************************************
               *                     SUCCESS                       *
               *           SCF CONVERGED AFTER  26 CYCLES          *
               *****************************************************

Old exchange energy                            =    -11.163125944 Eh
New exchange energy                            =    -11.163139704 Eh
Exchange energy change after final integration =     -0.000013760 Eh
Total energy after final integration           =   -344.333010009 Eh
Final COS-X integration done in                =     4.927 sec

----------------
TOTAL SCF ENERGY
----------------

Total Energy       :         -344.33301001 Eh           -9369.77755 eV

Components:
Nuclear Repulsion  :          302.97748709 Eh            8244.43656 eV
Electronic Energy  :         -647.31049710 Eh          -17614.21412 eV
One Electron Energy:        -1069.42463184 Eh          -29100.52367 eV
Two Electron Energy:          422.11413474 Eh           11486.30956 eV
Max COSX asymmetry :            0.00000088 Eh               0.00002 eV

Virial components:
Potential Energy   :         -685.85243337 Eh          -18662.99352 eV
Kinetic Energy     :          341.51942336 Eh            9293.21597 eV
Virial Ratio       :            2.00823844


DFT components:
N(Alpha)           :       26.999995455812 electrons
N(Beta)            :       25.999991529993 electrons
N(Total)           :       52.999986985805 electrons
E(X)               :      -33.448320345483 Eh       
E(C)               :       -1.767885143227 Eh       
E(XC)              :      -35.216205488709 Eh       
DFET-embed. en.    :        0.000000000000 Eh       

---------------
SCF CONVERGENCE
---------------

  Last Energy change         ...    1.9018e-09  Tolerance :   1.0000e-08
  Last MAX-Density change    ...    0.0000e+00  Tolerance :   1.0000e-07
  Last RMS-Density change    ...    0.0000e+00  Tolerance :   5.0000e-09
  Last DIIS Error            ...    1.2916e-06  Tolerance :   5.0000e-07

             **** THE GBW FILE WAS UPDATED (6_0_orca.gbw) ****
             **** DENSITY 6_0_orca.scfp WAS UPDATED ****
             **** ENERGY FILE WAS UPDATED (6_0_orca.en.tmp) ****
----------------------
UHF SPIN CONTAMINATION
----------------------

Warning: in a DFT calculation there is little theoretical justification to 
         calculate <S**2> as in Hartree-Fock theory. We will do it anyways
         but you should keep in mind that the values have only limited relevance

Expectation value of <S**2>     :     0.888092
Ideal value S*(S+1) for S=0.5   :     0.750000
Deviation                       :     0.138092

             **** THE GBW FILE WAS UPDATED (6_0_orca.gbw) ****
             **** DENSITY 6_0_orca.scfp WAS UPDATED ****
----------------
ORBITAL ENERGIES
----------------
                 SPIN UP ORBITALS
  NO   OCC          E(Eh)            E(eV) 
   0   1.0000     -19.241406      -523.5853 
   1   1.0000     -19.207683      -522.6676 
   2   1.0000     -10.289533      -279.9924 
   3   1.0000     -10.277651      -279.6691 
   4   1.0000     -10.258067      -279.1362 
   5   1.0000     -10.248058      -278.8638 
   6   1.0000     -10.237017      -278.5634 
   7   1.0000      -1.057748       -28.7828 
   8   1.0000      -0.951847       -25.9011 
   9   1.0000      -0.854686       -23.2572 
  10   1.0000      -0.747499       -20.3405 
  11   1.0000      -0.706141       -19.2151 
  12   1.0000      -0.583417       -15.8756 
  13   1.0000      -0.565652       -15.3922 
  14   1.0000      -0.554549       -15.0901 
  15   1.0000      -0.484269       -13.1776 
  16   1.0000      -0.464089       -12.6285 
  17   1.0000      -0.431311       -11.7366 
  18   1.0000      -0.414771       -11.2865 
  19   1.0000      -0.410183       -11.1617 
  20   1.0000      -0.398895       -10.8545 
  21   1.0000      -0.377861       -10.2821 
  22   1.0000      -0.363447        -9.8899 
  23   1.0000      -0.315820        -8.5939 
  24   1.0000      -0.305948        -8.3253 
  25   1.0000      -0.264496        -7.1973 
  26   1.0000      -0.211065        -5.7434 
  27   0.0000      -0.056250        -1.5306 
  28   0.0000       0.037112         1.0099 
  29   0.0000       0.077752         2.1157 
  30   0.0000       0.104730         2.8498 
  31   0.0000       0.117902         3.2083 
  32   0.0000       0.119496         3.2516 
  33   0.0000       0.134582         3.6622 
  34   0.0000       0.139543         3.7971 
  35   0.0000       0.149949         4.0803 
  36   0.0000       0.189203         5.1485 
  37   0.0000       0.211666         5.7597 
  38   0.0000       0.222634         6.0582 
  39   0.0000       0.272777         7.4226 
  40   0.0000       0.329201         8.9580 
  41   0.0000       0.375967        10.2306 
  42   0.0000       0.395114        10.7516 
  43   0.0000       0.438480        11.9317 
  44   0.0000       0.462592        12.5878 
  45   0.0000       0.487070        13.2538 
  46   0.0000       0.498412        13.5625 
  47   0.0000       0.528676        14.3860 
  48   0.0000       0.548798        14.9335 
  49   0.0000       0.569444        15.4954 
  50   0.0000       0.586652        15.9636 
  51   0.0000       0.607357        16.5270 
  52   0.0000       0.616369        16.7722 
  53   0.0000       0.631911        17.1952 
  54   0.0000       0.645226        17.5575 
  55   0.0000       0.653124        17.7724 
  56   0.0000       0.672499        18.2996 
  57   0.0000       0.688294        18.7294 
  58   0.0000       0.691616        18.8198 
  59   0.0000       0.704998        19.1840 
  60   0.0000       0.723807        19.6958 
  61   0.0000       0.735163        20.0048 
  62   0.0000       0.774122        21.0649 
  63   0.0000       0.797425        21.6990 
  64   0.0000       0.831771        22.6336 
  65   0.0000       0.882441        24.0124 
  66   0.0000       0.947561        25.7844 
  67   0.0000       0.989470        26.9249 
  68   0.0000       1.012764        27.5587 
  69   0.0000       1.053649        28.6712 
  70   0.0000       1.089980        29.6599 
  71   0.0000       1.122876        30.5550 
  72   0.0000       1.132502        30.8169 
  73   0.0000       1.166466        31.7412 
  74   0.0000       1.202558        32.7233 
  75   0.0000       1.257732        34.2246 
  76   0.0000       1.275291        34.7024 
  77   0.0000       1.321984        35.9730 
  78   0.0000       1.395685        37.9785 
  79   0.0000       1.470135        40.0044 
  80   0.0000       1.478528        40.2328 
  81   0.0000       1.550235        42.1840 
  82   0.0000       1.597304        43.4648 
  83   0.0000       1.607445        43.7408 
  84   0.0000       1.631263        44.3889 
  85   0.0000       1.643750        44.7287 
  86   0.0000       1.670983        45.4698 
  87   0.0000       1.698680        46.2234 
  88   0.0000       1.707621        46.4667 
  89   0.0000       1.740360        47.3576 
  90   0.0000       1.783402        48.5288 
  91   0.0000       1.815968        49.4150 
  92   0.0000       1.823617        49.6231 
  93   0.0000       1.849763        50.3346 
  94   0.0000       1.877482        51.0889 
  95   0.0000       1.897667        51.6381 
  96   0.0000       1.916732        52.1569 
  97   0.0000       1.950436        53.0741 
  98   0.0000       1.958988        53.3068 
  99   0.0000       2.008656        54.6583 
 100   0.0000       2.039743        55.5042 
 101   0.0000       2.059916        56.0532 
 102   0.0000       2.081245        56.6336 
 103   0.0000       2.103840        57.2484 
 104   0.0000       2.235815        60.8396 
 105   0.0000       2.242698        61.0269 
 106   0.0000       2.282130        62.0999 
 107   0.0000       2.322901        63.2093 
 108   0.0000       2.377406        64.6925 
 109   0.0000       2.391615        65.0791 
 110   0.0000       2.437242        66.3207 
 111   0.0000       2.479226        67.4632 
 112   0.0000       2.512917        68.3800 
 113   0.0000       2.603059        70.8328 
 114   0.0000       2.646399        72.0122 
 115   0.0000       2.672140        72.7126 
 116   0.0000       2.701043        73.4991 
 117   0.0000       2.714093        73.8542 
 118   0.0000       2.746694        74.7413 
 119   0.0000       2.766964        75.2929 
 120   0.0000       2.815348        76.6095 
 121   0.0000       2.848731        77.5179 
 122   0.0000       2.927763        79.6685 
 123   0.0000       2.963510        80.6412 
 124   0.0000       3.015912        82.0671 
 125   0.0000       3.028704        82.4152 
 126   0.0000       3.077491        83.7428 
 127   0.0000       3.088141        84.0326 
 128   0.0000       3.158052        85.9350 
 129   0.0000       3.203299        87.1662 
 130   0.0000       3.425853        93.2222 
 131   0.0000       3.463621        94.2499 
 132   0.0000       3.756114       102.2091 

                 SPIN DOWN ORBITALS
  NO   OCC          E(Eh)            E(eV) 
   0   1.0000     -19.244602      -523.6722 
   1   1.0000     -19.193036      -522.2691 
   2   1.0000     -10.289994      -280.0050 
   3   1.0000     -10.270989      -279.4878 
   4   1.0000     -10.251830      -278.9665 
   5   1.0000     -10.249564      -278.9048 
   6   1.0000     -10.237556      -278.5781 
   7   1.0000      -1.059227       -28.8230 
   8   1.0000      -0.919770       -25.0282 
   9   1.0000      -0.847554       -23.0631 
  10   1.0000      -0.743869       -20.2417 
  11   1.0000      -0.696852       -18.9623 
  12   1.0000      -0.579251       -15.7622 
  13   1.0000      -0.563247       -15.3267 
  14   1.0000      -0.549280       -14.9467 
  15   1.0000      -0.477545       -12.9947 
  16   1.0000      -0.461350       -12.5540 
  17   1.0000      -0.423254       -11.5173 
  18   1.0000      -0.411419       -11.1953 
  19   1.0000      -0.406550       -11.0628 
  20   1.0000      -0.392777       -10.6880 
  21   1.0000      -0.375035       -10.2052 
  22   1.0000      -0.346785        -9.4365 
  23   1.0000      -0.304326        -8.2811 
  24   1.0000      -0.277815        -7.5597 
  25   1.0000      -0.254054        -6.9132 
  26   0.0000      -0.084451        -2.2980 
  27   0.0000      -0.023787        -0.6473 
  28   0.0000       0.056544         1.5386 
  29   0.0000       0.079445         2.1618 
  30   0.0000       0.108210         2.9445 
  31   0.0000       0.121188         3.2977 
  32   0.0000       0.121804         3.3145 
  33   0.0000       0.137172         3.7326 
  34   0.0000       0.141949         3.8626 
  35   0.0000       0.152057         4.1377 
  36   0.0000       0.192067         5.2264 
  37   0.0000       0.214356         5.8329 
  38   0.0000       0.225211         6.1283 
  39   0.0000       0.278487         7.5780 
  40   0.0000       0.331705         9.0261 
  41   0.0000       0.381725        10.3873 
  42   0.0000       0.394564        10.7366 
  43   0.0000       0.446501        12.1499 
  44   0.0000       0.467866        12.7313 
  45   0.0000       0.494599        13.4587 
  46   0.0000       0.508286        13.8312 
  47   0.0000       0.543140        14.7796 
  48   0.0000       0.550992        14.9932 
  49   0.0000       0.581087        15.8122 
  50   0.0000       0.594847        16.1866 
  51   0.0000       0.612705        16.6725 
  52   0.0000       0.623734        16.9727 
  53   0.0000       0.636664        17.3245 
  54   0.0000       0.651920        17.7397 
  55   0.0000       0.659587        17.9483 
  56   0.0000       0.675238        18.3741 
  57   0.0000       0.689465        18.7613 
  58   0.0000       0.694859        18.9081 
  59   0.0000       0.706805        19.2331 
  60   0.0000       0.726778        19.7766 
  61   0.0000       0.737845        20.0778 
  62   0.0000       0.777826        21.1657 
  63   0.0000       0.801810        21.8183 
  64   0.0000       0.835459        22.7340 
  65   0.0000       0.884089        24.0573 
  66   0.0000       0.958610        26.0851 
  67   0.0000       1.004082        27.3225 
  68   0.0000       1.025925        27.9168 
  69   0.0000       1.063552        28.9407 
  70   0.0000       1.091816        29.7098 
  71   0.0000       1.124820        30.6079 
  72   0.0000       1.139690        31.0125 
  73   0.0000       1.170860        31.8607 
  74   0.0000       1.207384        32.8546 
  75   0.0000       1.271551        34.6007 
  76   0.0000       1.286008        34.9941 
  77   0.0000       1.331131        36.2219 
  78   0.0000       1.399914        38.0936 
  79   0.0000       1.469604        39.9900 
  80   0.0000       1.479464        40.2583 
  81   0.0000       1.559058        42.4241 
  82   0.0000       1.600692        43.5570 
  83   0.0000       1.610098        43.8130 
  84   0.0000       1.632375        44.4192 
  85   0.0000       1.650594        44.9149 
  86   0.0000       1.674842        45.5748 
  87   0.0000       1.699630        46.2493 
  88   0.0000       1.710609        46.5480 
  89   0.0000       1.745152        47.4880 
  90   0.0000       1.786165        48.6040 
  91   0.0000       1.817491        49.4564 
  92   0.0000       1.829527        49.7840 
  93   0.0000       1.854706        50.4691 
  94   0.0000       1.880793        51.1790 
  95   0.0000       1.905471        51.8505 
  96   0.0000       1.923711        52.3468 
  97   0.0000       1.961944        53.3872 
  98   0.0000       1.964616        53.4599 
  99   0.0000       2.012988        54.7762 
 100   0.0000       2.044044        55.6213 
 101   0.0000       2.067150        56.2500 
 102   0.0000       2.082484        56.6673 
 103   0.0000       2.104911        57.2776 
 104   0.0000       2.241901        61.0052 
 105   0.0000       2.250371        61.2357 
 106   0.0000       2.287666        62.2506 
 107   0.0000       2.333831        63.5068 
 108   0.0000       2.387779        64.9748 
 109   0.0000       2.401131        65.3381 
 110   0.0000       2.440124        66.3992 
 111   0.0000       2.484854        67.6163 
 112   0.0000       2.521143        68.6038 
 113   0.0000       2.610672        71.0400 
 114   0.0000       2.657499        72.3142 
 115   0.0000       2.677831        72.8675 
 116   0.0000       2.704646        73.5972 
 117   0.0000       2.727877        74.2293 
 118   0.0000       2.755322        74.9761 
 119   0.0000       2.768642        75.3386 
 120   0.0000       2.817575        76.6701 
 121   0.0000       2.850439        77.5644 
 122   0.0000       2.928684        79.6935 
 123   0.0000       2.978512        81.0494 
 124   0.0000       3.023571        82.2756 
 125   0.0000       3.043254        82.8111 
 126   0.0000       3.081145        83.8422 
 127   0.0000       3.090753        84.1037 
 128   0.0000       3.161495        86.0287 
 129   0.0000       3.217549        87.5540 
 130   0.0000       3.427499        93.2670 
 131   0.0000       3.460000        94.1514 
 132   0.0000       3.768262       102.5396 

                    ********************************
                    * MULLIKEN POPULATION ANALYSIS *
                    ********************************

--------------------------------------------
MULLIKEN ATOMIC CHARGES AND SPIN POPULATIONS
--------------------------------------------
   0 O :   -0.274487    0.516154
   1 O :   -0.293694   -0.163682
   2 C :    0.038186   -0.037320
   3 C :    0.005845    0.471049
   4 C :    0.003067   -0.283684
   5 C :   -0.078628    0.565762
   6 C :    0.114264   -0.045513
   7 H :    0.174889   -0.011557
   8 H :    0.044553    0.003276
   9 H :    0.059271   -0.022377
  10 H :    0.037581    0.010313
  11 H :    0.038161   -0.027670
  12 H :    0.057621    0.020404
  13 H :    0.073371    0.004844
Sum of atomic charges         :    0.0000000
Sum of atomic spin populations:    1.0000000

-----------------------------------------------------
MULLIKEN REDUCED ORBITAL CHARGES AND SPIN POPULATIONS
-----------------------------------------------------
CHARGE
  0 O s       :     3.843921  s :     3.843921
      pz      :     1.319733  p :     4.422544
      px      :     1.393633
      py      :     1.709178
      dz2     :     0.004974  d :     0.008021
      dxz     :     0.000593
      dyz     :     0.000809
      dx2y2   :     0.000487
      dxy     :     0.001159
  1 O s       :     3.906350  s :     3.906350
      pz      :     1.409013  p :     4.372102
      px      :     1.447785
      py      :     1.515304
      dz2     :     0.005547  d :     0.015242
      dxz     :     0.002464
      dyz     :     0.003454
      dx2y2   :     0.001179
      dxy     :     0.002597
  2 C s       :     3.179506  s :     3.179506
      pz      :     0.757892  p :     2.702618
      px      :     0.988875
      py      :     0.955852
      dz2     :     0.022062  d :     0.079690
      dxz     :     0.015844
      dyz     :     0.021212
      dx2y2   :     0.007472
      dxy     :     0.013100
  3 C s       :     3.238120  s :     3.238120
      pz      :     0.961661  p :     2.719947
      px      :     0.909293
      py      :     0.848993
      dz2     :     0.002936  d :     0.036088
      dxz     :     0.006295
      dyz     :     0.006343
      dx2y2   :     0.009470
      dxy     :     0.011044
  4 C s       :     3.169138  s :     3.169138
      pz      :     0.969650  p :     2.791349
      px      :     0.870989
      py      :     0.950709
      dz2     :     0.004035  d :     0.036446
      dxz     :     0.006128
      dyz     :     0.006130
      dx2y2   :     0.009577
      dxy     :     0.010575
  5 C s       :     3.235928  s :     3.235928
      pz      :     0.914070  p :     2.806222
      px      :     0.967586
      py      :     0.924567
      dz2     :     0.006037  d :     0.036478
      dxz     :     0.005351
      dyz     :     0.005535
      dx2y2   :     0.008218
      dxy     :     0.011337
  6 C s       :     2.956610  s :     2.956610
      pz      :     0.942299  p :     2.894417
      px      :     0.942363
      py      :     1.009755
      dz2     :     0.008798  d :     0.034709
      dxz     :     0.006820
      dyz     :     0.004741
      dx2y2   :     0.006389
      dxy     :     0.007961
  7 H s       :     0.758276  s :     0.758276
      pz      :     0.034734  p :     0.066835
      px      :     0.014126
      py      :     0.017975
  8 H s       :     0.934278  s :     0.934278
      pz      :     0.003577  p :     0.021169
      px      :     0.012144
      py      :     0.005448
  9 H s       :     0.916990  s :     0.916990
      pz      :     0.006895  p :     0.023739
      px      :     0.003133
      py      :     0.013711
 10 H s       :     0.938626  s :     0.938626
      pz      :     0.007196  p :     0.023793
      px      :     0.012839
      py      :     0.003757
 11 H s       :     0.938231  s :     0.938231
      pz      :     0.004372  p :     0.023608
      px      :     0.007808
      py      :     0.011428
 12 H s       :     0.919373  s :     0.919373
      pz      :     0.013863  p :     0.023005
      px      :     0.004566
      py      :     0.004576
 13 H s       :     0.903146  s :     0.903146
      pz      :     0.004352  p :     0.023483
      px      :     0.008166
      py      :     0.010965

SPIN
  0 O s       :     0.003558  s :     0.003558
      pz      :     0.013099  p :     0.512550
      px      :     0.298526
      py      :     0.200925
      dz2     :    -0.000150  d :     0.000045
      dxz     :     0.000133
      dyz     :     0.000127
      dx2y2   :    -0.000002
      dxy     :    -0.000062
  1 O s       :     0.010710  s :     0.010710
      pz      :     0.001422  p :    -0.175828
      px      :    -0.045718
      py      :    -0.131531
      dz2     :     0.000199  d :     0.001436
      dxz     :     0.000146
      dyz     :     0.000014
      dx2y2   :     0.000018
      dxy     :     0.001060
  2 C s       :    -0.009252  s :    -0.009252
      pz      :    -0.005828  p :    -0.030106
      px      :    -0.017176
      py      :    -0.007103
      dz2     :    -0.000866  d :     0.002038
      dxz     :     0.002392
      dyz     :     0.000941
      dx2y2   :     0.000048
      dxy     :    -0.000476
  3 C s       :     0.061104  s :     0.061104
      pz      :     0.308827  p :     0.412806
      px      :     0.034750
      py      :     0.069229
      dz2     :    -0.000501  d :    -0.002860
      dxz     :    -0.001177
      dyz     :    -0.000871
      dx2y2   :    -0.000193
      dxy     :    -0.000119
  4 C s       :    -0.049344  s :    -0.049344
      pz      :    -0.152038  p :    -0.240626
      px      :    -0.035978
      py      :    -0.052609
      dz2     :     0.001052  d :     0.006286
      dxz     :     0.001140
      dyz     :     0.002778
      dx2y2   :     0.000731
      dxy     :     0.000585
  5 C s       :     0.073638  s :     0.073638
      pz      :     0.331532  p :     0.494181
      px      :     0.101328
      py      :     0.061321
      dz2     :    -0.000453  d :    -0.002057
      dxz     :    -0.000569
      dyz     :    -0.000715
      dx2y2   :    -0.000105
      dxy     :    -0.000215
  6 C s       :    -0.013010  s :    -0.013010
      pz      :    -0.010746  p :    -0.035279
      px      :    -0.019619
      py      :    -0.004915
      dz2     :     0.001749  d :     0.002776
      dxz     :     0.000370
      dyz     :     0.000271
      dx2y2   :     0.000278
      dxy     :     0.000108
  7 H s       :    -0.014894  s :    -0.014894
      pz      :     0.000277  p :     0.003337
      px      :     0.001964
      py      :     0.001096
  8 H s       :     0.003367  s :     0.003367
      pz      :    -0.000035  p :    -0.000091
      px      :    -0.000030
      py      :    -0.000026
  9 H s       :    -0.024728  s :    -0.024728
      pz      :     0.001747  p :     0.002351
      px      :    -0.000003
      py      :     0.000607
 10 H s       :     0.011381  s :     0.011381
      pz      :    -0.000703  p :    -0.001068
      px      :    -0.000219
      py      :    -0.000146
 11 H s       :    -0.030601  s :    -0.030601
      pz      :     0.001969  p :     0.002931
      px      :     0.000531
      py      :     0.000431
 12 H s       :     0.020519  s :     0.020519
      pz      :    -0.000195  p :    -0.000115
      px      :     0.000071
      py      :     0.000009
 13 H s       :     0.004900  s :     0.004900
      pz      :    -0.000050  p :    -0.000057
      px      :    -0.000046
      py      :     0.000039


                     *******************************
                     * LOEWDIN POPULATION ANALYSIS *
                     *******************************

-------------------------------------------
LOEWDIN ATOMIC CHARGES AND SPIN POPULATIONS
-------------------------------------------
   0 O :   -0.176405    0.478090
   1 O :   -0.108950   -0.127977
   2 C :    0.043247   -0.006765
   3 C :    0.035527    0.359410
   4 C :   -0.040666   -0.166175
   5 C :    0.030634    0.446809
   6 C :   -0.050847   -0.008890
   7 H :    0.056041    0.003522
   8 H :    0.022827    0.001887
   9 H :    0.036392   -0.000556
  10 H :    0.036522    0.000403
  11 H :    0.027740   -0.001069
  12 H :    0.039307    0.017066
  13 H :    0.048633    0.004243

----------------------------------------------------
LOEWDIN REDUCED ORBITAL CHARGES AND SPIN POPULATIONS
----------------------------------------------------
CHARGE
  0 O s       :     3.656352  s :     3.656352
      pz      :     1.423128  p :     4.505772
      px      :     1.391347
      py      :     1.691298
      dz2     :     0.010521  d :     0.014282
      dxz     :     0.000357
      dyz     :     0.000628
      dx2y2   :     0.000818
      dxy     :     0.001957
  1 O s       :     3.651475  s :     3.651475
      pz      :     1.484822  p :     4.431388
      px      :     1.426269
      py      :     1.520298
      dz2     :     0.009607  d :     0.026087
      dxz     :     0.003658
      dyz     :     0.006077
      dx2y2   :     0.001759
      dxy     :     0.004987
  2 C s       :     2.854413  s :     2.854413
      pz      :     0.887312  p :     2.923639
      px      :     1.035490
      py      :     1.000837
      dz2     :     0.047590  d :     0.178702
      dxz     :     0.034108
      dyz     :     0.049861
      dx2y2   :     0.015166
      dxy     :     0.031976
  3 C s       :     2.913041  s :     2.913041
      pz      :     0.968448  p :     2.965440
      px      :     0.995677
      py      :     1.001315
      dz2     :     0.006953  d :     0.085992
      dxz     :     0.014224
      dyz     :     0.012016
      dx2y2   :     0.022776
      dxy     :     0.030024
  4 C s       :     2.870555  s :     2.870555
      pz      :     0.989720  p :     3.074493
      px      :     1.035037
      py      :     1.049736
      dz2     :     0.008967  d :     0.095617
      dxz     :     0.013792
      dyz     :     0.015844
      dx2y2   :     0.026656
      dxy     :     0.030359
  5 C s       :     2.893548  s :     2.893548
      pz      :     0.937782  p :     2.987355
      px      :     1.000670
      py      :     1.048903
      dz2     :     0.012380  d :     0.088463
      dxz     :     0.012734
      dyz     :     0.012953
      dx2y2   :     0.022940
      dxy     :     0.027456
  6 C s       :     2.843401  s :     2.843401
      pz      :     1.037122  p :     3.116182
      px      :     1.027495
      py      :     1.051565
      dz2     :     0.023782  d :     0.091264
      dxz     :     0.017817
      dyz     :     0.012110
      dx2y2   :     0.016943
      dxy     :     0.020612
  7 H s       :     0.761285  s :     0.761285
      pz      :     0.097488  p :     0.182674
      px      :     0.037810
      py      :     0.047377
  8 H s       :     0.909578  s :     0.909578
      pz      :     0.013167  p :     0.067595
      px      :     0.035872
      py      :     0.018556
  9 H s       :     0.889663  s :     0.889663
      pz      :     0.021908  p :     0.073945
      px      :     0.011749
      py      :     0.040289
 10 H s       :     0.894176  s :     0.894176
      pz      :     0.020903  p :     0.069302
      px      :     0.036239
      py      :     0.012161
 11 H s       :     0.900951  s :     0.900951
      pz      :     0.014344  p :     0.071309
      px      :     0.024709
      py      :     0.032257
 12 H s       :     0.893469  s :     0.893469
      pz      :     0.039764  p :     0.067224
      px      :     0.013401
      py      :     0.014059
 13 H s       :     0.882284  s :     0.882284
      pz      :     0.012303  p :     0.069083
      px      :     0.023714
      py      :     0.033066

SPIN
  0 O s       :     0.003737  s :     0.003737
      pz      :     0.007972  p :     0.474586
      px      :     0.277774
      py      :     0.188839
      dz2     :    -0.000189  d :    -0.000233
      dxz     :     0.000051
      dyz     :     0.000061
      dx2y2   :    -0.000081
      dxy     :    -0.000075
  1 O s       :     0.019720  s :     0.019720
      pz      :     0.000964  p :    -0.150411
      px      :    -0.031898
      py      :    -0.119478
      dz2     :     0.000284  d :     0.002714
      dxz     :     0.000090
      dyz     :     0.000031
      dx2y2   :     0.000107
      dxy     :     0.002202
  2 C s       :    -0.000630  s :    -0.000630
      pz      :     0.001160  p :    -0.010892
      px      :    -0.006807
      py      :    -0.005244
      dz2     :    -0.001632  d :     0.004757
      dxz     :     0.005298
      dyz     :     0.001814
      dx2y2   :     0.000159
      dxy     :    -0.000882
  3 C s       :     0.011369  s :     0.011369
      pz      :     0.279678  p :     0.353769
      px      :     0.021723
      py      :     0.052368
      dz2     :    -0.000446  d :    -0.005729
      dxz     :    -0.002597
      dyz     :    -0.001229
      dx2y2   :    -0.000749
      dxy     :    -0.000707
  4 C s       :    -0.009317  s :    -0.009317
      pz      :    -0.118808  p :    -0.172419
      px      :    -0.023587
      py      :    -0.030024
      dz2     :     0.002272  d :     0.015561
      dxz     :     0.002639
      dyz     :     0.006431
      dx2y2   :     0.002248
      dxy     :     0.001971
  5 C s       :     0.017929  s :     0.017929
      pz      :     0.297751  p :     0.433358
      px      :     0.091433
      py      :     0.044174
      dz2     :    -0.000930  d :    -0.004478
      dxz     :    -0.000631
      dyz     :    -0.001527
      dx2y2   :    -0.000554
      dxy     :    -0.000836
  6 C s       :    -0.002289  s :    -0.002289
      pz      :    -0.003771  p :    -0.013736
      px      :    -0.007943
      py      :    -0.002022
      dz2     :     0.004382  d :     0.007135
      dxz     :     0.001019
      dyz     :     0.000692
      dx2y2   :     0.000763
      dxy     :     0.000278
  7 H s       :    -0.009665  s :    -0.009665
      pz      :     0.002231  p :     0.013187
      px      :     0.006814
      py      :     0.004142
  8 H s       :     0.002256  s :     0.002256
      pz      :    -0.000009  p :    -0.000369
      px      :    -0.000174
      py      :    -0.000186
  9 H s       :    -0.011201  s :    -0.011201
      pz      :     0.007122  p :     0.010645
      px      :     0.000549
      py      :     0.002975
 10 H s       :     0.005078  s :     0.005078
      pz      :    -0.002865  p :    -0.004674
      px      :    -0.001083
      py      :    -0.000726
 11 H s       :    -0.013514  s :    -0.013514
      pz      :     0.007577  p :     0.012445
      px      :     0.002681
      py      :     0.002187
 12 H s       :     0.017589  s :     0.017589
      pz      :    -0.000419  p :    -0.000523
      px      :    -0.000062
      py      :    -0.000042
 13 H s       :     0.004602  s :     0.004602
      pz      :    -0.000151  p :    -0.000359
      px      :    -0.000121
      py      :    -0.000087


                      *****************************
                      * MAYER POPULATION ANALYSIS *
                      *****************************

  NA   - Mulliken gross atomic population
  ZA   - Total nuclear charge
  QA   - Mulliken gross atomic charge
  VA   - Mayer's total valence
  BVA  - Mayer's bonded valence
  FA   - Mayer's free valence

  ATOM       NA         ZA         QA         VA         BVA        FA
  0 O      8.2745     8.0000    -0.2745     2.0140     1.7506     0.2634
  1 O      8.2937     8.0000    -0.2937     1.9893     1.9217     0.0676
  2 C      5.9618     6.0000     0.0382     3.9568     3.9555     0.0013
  3 C      5.9942     6.0000     0.0058     3.8082     3.6537     0.1545
  4 C      5.9969     6.0000     0.0031     3.8403     3.8011     0.0392
  5 C      6.0786     6.0000    -0.0786     3.9402     3.7281     0.2121
  6 C      5.8857     6.0000     0.1143     3.7880     3.7871     0.0010
  7 H      0.8251     1.0000     0.1749     1.0082     1.0078     0.0004
  8 H      0.9554     1.0000     0.0446     0.9965     0.9964     0.0000
  9 H      0.9407     1.0000     0.0593     0.9919     0.9912     0.0006
 10 H      0.9624     1.0000     0.0376     0.9874     0.9873     0.0001
 11 H      0.9618     1.0000     0.0382     0.9887     0.9877     0.0010
 12 H      0.9424     1.0000     0.0576     0.9787     0.9782     0.0004
 13 H      0.9266     1.0000     0.0734     1.0043     1.0043     0.0000

  Mayer bond orders larger than 0.100000
B(  0-O ,  1-O ) :   0.5557 B(  0-O ,  7-H ) :   0.9818 B(  1-O ,  2-C ) :   0.9250 
B(  1-O ,  3-C ) :   0.3261 B(  2-C ,  3-C ) :   0.9663 B(  2-C ,  6-C ) :   1.0055 
B(  2-C ,  8-H ) :   0.9563 B(  3-C ,  4-C ) :   1.2449 B(  3-C ,  9-H ) :   0.9952 
B(  4-C ,  5-C ) :   1.5194 B(  4-C , 10-H ) :   0.9937 B(  5-C ,  6-C ) :   0.9967 
B(  5-C , 11-H ) :   0.9769 B(  6-C , 12-H ) :   0.9265 B(  6-C , 13-H ) :   0.9261 



------------------
HIRSHFELD ANALYSIS
------------------

Total integrated alpha density =     26.999995456
Total integrated beta density  =     25.999991530

  ATOM     CHARGE      SPIN    
   0 O   -0.256965    0.459698
   1 O   -0.134208   -0.101060
   2 C    0.056586    0.008506
   3 C    0.012059    0.274470
   4 C   -0.041029   -0.078838
   5 C    0.005694    0.348291
   6 C   -0.046941    0.018123
   7 H    0.143474    0.011976
   8 H    0.042477    0.002616
   9 H    0.052980    0.018046
  10 H    0.048615   -0.006383
  11 H    0.040261    0.022175
  12 H    0.034091    0.017262
  13 H    0.042919    0.005120

  TOTAL   0.000013    1.000004

-------
TIMINGS
-------

Total SCF time: 0 days 0 hours 1 min 9 sec 

Total time                  ....      69.965 sec
Sum of individual times     ....      69.785 sec  ( 99.7%)

Fock matrix formation       ....      67.821 sec  ( 96.9%)
  Split-RI-J                ....       4.400 sec  (  6.5% of F)
  Chain of spheres X        ....      46.159 sec  ( 68.1% of F)
  XC integration            ....      17.259 sec  ( 25.4% of F)
    Basis function eval.    ....       4.993 sec  ( 28.9% of XC)
    Density eval.           ....       4.715 sec  ( 27.3% of XC)
    XC-Functional eval.     ....       1.729 sec  ( 10.0% of XC)
    XC-Potential eval.      ....       5.406 sec  ( 31.3% of XC)
Diagonalization             ....       0.112 sec  (  0.2%)
Density matrix formation    ....       0.009 sec  (  0.0%)
Population analysis         ....       0.352 sec  (  0.5%)
Initial guess               ....       0.268 sec  (  0.4%)
Orbital Transformation      ....       0.000 sec  (  0.0%)
Orbital Orthonormalization  ....       0.000 sec  (  0.0%)
DIIS solution               ....       0.033 sec  (  0.0%)
Grid generation             ....       1.190 sec  (  1.7%)

Maximum memory used throughout the entire SCF-calculation: 63.7 MB


-------------------------------------------------------------------------------
                          DFT DISPERSION CORRECTION                            
                                                                               
                              DFTD3 V3.1  Rev 1                                
                          USING Becke-Johnson damping                          
-------------------------------------------------------------------------------
The PBE0 functional is recognized
Active option DFTDOPT                   ...         4   

molecular C6(AA) [au] = 1768.221609 


            DFT-D V3
 parameters
 s6 scaling factor         :     1.0000 
 a1 scaling factor         :     0.4145 
 s8 scaling factor         :     1.2177 
 a2 scaling factor         :     4.8593 
 ad hoc parameters k1-k3   :    16.0000     1.3333    -4.0000 

 Edisp/kcal,au: -6.333087198499  -0.010092415788 
 E6   /kcal   :  -4.024483175 
 E8   /kcal   :  -2.308604024 
 % E8         :  36.453059167 

-------------------------   ----------------
Dispersion correction           -0.010092416
-------------------------   ----------------


-------------------------   --------------------
FINAL SINGLE POINT ENERGY      -344.343102424446
-------------------------   --------------------

------------------------------------------------------------------------------
                         ORCA SCF GRADIENT CALCULATION
------------------------------------------------------------------------------

 ... reading COSX grid (gridx3)
Gradient of the Kohn-Sham DFT energy:
Kohn-Sham wavefunction type      ... UKS
Hartree-Fock exchange scaling    ...    0.250
Number of operators              ...    2
Number of atoms                  ...   14
Basis set dimensions             ...  133
Integral neglect threshold       ... 2.5e-11
Integral primitive cutoff        ... 2.5e-12
SHARK Integral package           ... ON

Nuc. rep. gradient       (SHARK) ... done (  0.0 sec)
HCore & Overlap gradient (SHARK) ... done (  0.1 sec)
RI-J gradient            (SHARK) ... done (  0.6 sec)
COSX-gradient                    ... done (  6.8 sec)
Exchange-correlation gradient    ... done
Dispersion correction            ... done

------------------
CARTESIAN GRADIENT
------------------

   1   O   :   -0.014590496   -0.007413270    0.000106903
   2   O   :    0.045854274   -0.008117618   -0.022666885
   3   C   :   -0.003718520    0.001056107   -0.003870334
   4   C   :   -0.000294863    0.002213368    0.001216405
   5   C   :    0.001685793    0.000685668    0.000916457
   6   C   :   -0.030730912    0.010711500    0.020152815
   7   C   :    0.000502793   -0.002852728    0.002040114
   8   H   :    0.000702206    0.000847572    0.001766166
   9   H   :    0.000193799    0.000219534   -0.000558722
  10   H   :    0.000044230    0.000675935    0.000360973
  11   H   :    0.000147355   -0.000043552    0.000077954
  12   H   :    0.000037597   -0.000031170   -0.000386697
  13   H   :    0.000195637    0.001638697    0.000721312
  14   H   :   -0.000073096    0.000341418    0.000389107

Difference to translation invariance:
           :   -0.0000442030   -0.0000685393    0.0002655676

Difference to rotation invariance:
           :    0.0005720584    0.0005251317   -0.0001852244

Norm of the cartesian gradient     ...    0.0669142659
RMS gradient                       ...    0.0103250954
MAX gradient                       ...    0.0458542745

-------
TIMINGS
-------

Total SCF gradient time            ...       11.427 sec

One electron gradient       ....       0.097 sec  (  0.8%)
RI-J Coulomb gradient       ....       0.594 sec  (  5.2%)
COSX gradient               ....       6.780 sec  ( 59.3%)
XC gradient                 ....       3.655 sec  ( 32.0%)

Maximum memory used throughout the entire SCFGRAD-calculation: 50.5 MB

                            ***************************************
                            *     ORCA property calculations      *
                            ***************************************

                                    ---------------------
                                    Active property flags
                                    ---------------------
   (+) Dipole Moment


------------------------------------------------------------------------------
                       ORCA ELECTRIC PROPERTIES CALCULATION
------------------------------------------------------------------------------

Dipole Moment Calculation                       ... on
Quadrupole Moment Calculation                   ... off
Polarizability Calculation                      ... off
GBWName                                         ... 6_0_orca.gbw
Electron density                                ... 6_0_orca.scfp
The origin for moment calculation is the CENTER OF MASS  = (-0.301978, -0.018188  0.316196)

-------------
DIPOLE MOMENT
-------------
                                X             Y             Z
Electronic contribution:     -0.68170       0.61411       1.59163
Nuclear contribution   :      1.36245      -0.15472      -1.78038
                        -----------------------------------------
Total Dipole Moment    :      0.68075       0.45939      -0.18875
                        -----------------------------------------
Magnitude (a.u.)       :      0.84267
Magnitude (Debye)      :      2.14189



--------------------
Rotational spectrum 
--------------------
 
Rotational constants in cm-1:     0.169739     0.076309     0.067215 
Rotational constants in MHz :  5088.643224  2287.673559  2015.046463 

 Dipole components along the rotational axes: 
x,y,z [a.u.] :    -0.799517    -0.247314     0.098464 
x,y,z [Debye]:    -2.032211    -0.628622     0.250276 

 

Timings for individual modules:

Sum of individual times         ...       82.254 sec (=   1.371 min)
GTO integral calculation        ...        0.728 sec (=   0.012 min)   0.9 %
SCF iterations                  ...       70.071 sec (=   1.168 min)  85.2 %
SCF Gradient evaluation         ...       11.455 sec (=   0.191 min)  13.9 %
                             ****ORCA TERMINATED NORMALLY****
TOTAL RUN TIME: 0 days 0 hours 1 minutes 22 seconds 411 msec
