
                                 *****************
                                 * O   R   C   A *
                                 *****************

                                            #,                                       
                                            ###                                      
                                            ####                                     
                                            #####                                    
                                            ######                                   
                                           ########,                                 
                                     ,,################,,,,,                         
                               ,,#################################,,                 
                          ,,##########################################,,             
                       ,#########################################, ''#####,          
                    ,#############################################,,   '####,        
                  ,##################################################,,,,####,       
                ,###########''''           ''''###############################       
              ,#####''   ,,,,##########,,,,          '''####'''          '####       
            ,##' ,,,,###########################,,,                        '##       
           ' ,,###''''                  '''############,,,                           
         ,,##''                                '''############,,,,        ,,,,,,###''
      ,#''                                            '''#######################'''  
     '                                                          ''''####''''         
             ,#######,   #######,   ,#######,      ##                                
            ,#'     '#,  ##    ##  ,#'     '#,    #''#        ######   ,####,        
            ##       ##  ##   ,#'  ##            #'  '#       #        #'  '#        
            ##       ##  #######   ##           ,######,      #####,   #    #        
            '#,     ,#'  ##    ##  '#,     ,#' ,#      #,         ##   #,  ,#        
             '#######'   ##     ##  '#######'  #'      '#     #####' # '####'        



                  #######################################################
                  #                        -***-                        #
                  #          Department of theory and spectroscopy      #
                  #    Directorship and core code : Frank Neese         #
                  #        Max Planck Institute fuer Kohlenforschung    #
                  #                Kaiser Wilhelm Platz 1               #
                  #                 D-45470 Muelheim/Ruhr               #
                  #                      Germany                        #
                  #                                                     #
                  #                  All rights reserved                #
                  #                        -***-                        #
                  #######################################################


                         Program Version 5.0.4 -  RELEASE  -


 With contributions from (in alphabetic order):
   Daniel Aravena         : Magnetic Suceptibility
   Michael Atanasov       : Ab Initio Ligand Field Theory (pilot matlab implementation)
   Alexander A. Auer      : GIAO ZORA, VPT2 properties, NMR spectrum
   Ute Becker             : Parallelization
   Giovanni Bistoni       : ED, misc. LED, open-shell LED, HFLD
   Martin Brehm           : Molecular dynamics
   Dmytro Bykov           : SCF Hessian
   Vijay G. Chilkuri      : MRCI spin determinant printing, contributions to CSF-ICE
   Dipayan Datta          : RHF DLPNO-CCSD density
   Achintya Kumar Dutta   : EOM-CC, STEOM-CC
   Dmitry Ganyushin       : Spin-Orbit,Spin-Spin,Magnetic field MRCI
   Miquel Garcia          : C-PCM and meta-GGA Hessian, CC/C-PCM, Gaussian charge scheme
   Yang Guo               : DLPNO-NEVPT2, F12-NEVPT2, CIM, IAO-localization
   Andreas Hansen         : Spin unrestricted coupled pair/coupled cluster methods
   Benjamin Helmich-Paris : MC-RPA, TRAH-SCF, COSX integrals
   Lee Huntington         : MR-EOM, pCC
   Robert Izsak           : Overlap fitted RIJCOSX, COSX-SCS-MP3, EOM
   Marcus Kettner         : VPT2
   Christian Kollmar      : KDIIS, OOCD, Brueckner-CCSD(T), CCSD density, CASPT2, CASPT2-K
   Simone Kossmann        : Meta GGA functionals, TD-DFT gradient, OOMP2, MP2 Hessian
   Martin Krupicka        : Initial AUTO-CI
   Lucas Lang             : DCDCAS
   Marvin Lechner         : AUTO-CI (C++ implementation), FIC-MRCC
   Dagmar Lenk            : GEPOL surface, SMD
   Dimitrios Liakos       : Extrapolation schemes; Compound Job, initial MDCI parallelization
   Dimitrios Manganas     : Further ROCIS development; embedding schemes
   Dimitrios Pantazis     : SARC Basis sets
   Anastasios Papadopoulos: AUTO-CI, single reference methods and gradients
   Taras Petrenko         : DFT Hessian,TD-DFT gradient, ASA, ECA, R-Raman, ABS, FL, XAS/XES, NRVS
   Peter Pinski           : DLPNO-MP2, DLPNO-MP2 Gradient
   Christoph Reimann      : Effective Core Potentials
   Marius Retegan         : Local ZFS, SOC
   Christoph Riplinger    : Optimizer, TS searches, QM/MM, DLPNO-CCSD(T), (RO)-DLPNO pert. Triples
   Tobias Risthaus        : Range-separated hybrids, TD-DFT gradient, RPA, STAB
   Michael Roemelt        : Original ROCIS implementation
   Masaaki Saitow         : Open-shell DLPNO-CCSD energy and density
   Barbara Sandhoefer     : DKH picture change effects
   Avijit Sen             : IP-ROCIS
   Kantharuban Sivalingam : CASSCF convergence, NEVPT2, FIC-MRCI
   Bernardo de Souza      : ESD, SOC TD-DFT
   Georgi Stoychev        : AutoAux, RI-MP2 NMR, DLPNO-MP2 response
   Willem Van den Heuvel  : Paramagnetic NMR
   Boris Wezisla          : Elementary symmetry handling
   Frank Wennmohs         : Technical directorship


 We gratefully acknowledge several colleagues who have allowed us to
 interface, adapt or use parts of their codes:
   Stefan Grimme, W. Hujo, H. Kruse, P. Pracht,  : VdW corrections, initial TS optimization,
                  C. Bannwarth, S. Ehlert          DFT functionals, gCP, sTDA/sTD-DF
   Ed Valeev, F. Pavosevic, A. Kumar             : LibInt (2-el integral package), F12 methods
   Garnet Chan, S. Sharma, J. Yang, R. Olivares  : DMRG
   Ulf Ekstrom                                   : XCFun DFT Library
   Mihaly Kallay                                 : mrcc  (arbitrary order and MRCC methods)
   Jiri Pittner, Ondrej Demel                    : Mk-CCSD
   Frank Weinhold                                : gennbo (NPA and NBO analysis)
   Christopher J. Cramer and Donald G. Truhlar   : smd solvation model
   Lars Goerigk                                  : TD-DFT with DH, B97 family of functionals
   V. Asgeirsson, H. Jonsson                     : NEB implementation
   FAccTs GmbH                                   : IRC, NEB, NEB-TS, DLPNO-Multilevel, CI-OPT
                                                   MM, QMMM, 2- and 3-layer-ONIOM, Crystal-QMMM,
                                                   LR-CPCM, SF, NACMEs, symmetry and pop. for TD-DFT,
                                                   nearIR, NL-DFT gradient (VV10), updates on ESD,
                                                   ML-optimized integration grids
   S Lehtola, MJT Oliveira, MAL Marques          : LibXC Library
   Liviu Ungur et al                             : ANISO software


 Your calculation uses the libint2 library for the computation of 2-el integrals
 For citations please refer to: http://libint.valeyev.net

 Your ORCA version has been built with support for libXC version: 5.1.0
 For citations please refer to: https://tddft.org/programs/libxc/

 This ORCA versions uses:
   CBLAS   interface :  Fast vector & matrix operations
   LAPACKE interface :  Fast linear algebra routines
   SCALAPACK package :  Parallel linear algebra routines
   Shared memory     :  Shared parallel matrices
   BLAS/LAPACK       :  OpenBLAS 0.3.15  USE64BITINT DYNAMIC_ARCH NO_AFFINITY SkylakeX SINGLE_THREADED
        Core in use  :  SkylakeX
   Copyright (c) 2011-2014, The OpenBLAS Project


Your calculation utilizes the atom-pairwise dispersion correction
with the Becke-Johnson damping scheme (D3BJ)
Cite in your paper:
S.Grimme, S.Ehrlich, L.Goerigk, J Comput Chem, (2011), 32, 1456–1465 
S.Grimme, J.Antony, S.Ehrlich and H.Krieg, J.Chem.Phys., 132, (2010), 154104 
   

================================================================================

----- Orbital basis set information -----
Your calculation utilizes the basis: def2-SVP
   F. Weigend and R. Ahlrichs, Phys. Chem. Chem. Phys. 7, 3297 (2005).

----- AuxJ basis set information -----
Your calculation utilizes the auxiliary basis: def2/J
   F. Weigend, Phys. Chem. Chem. Phys. 8, 1057 (2006).

================================================================================
                                        WARNINGS
                       Please study these warnings very carefully!
================================================================================


WARNING: your system is open-shell and RHF/RKS was chosen
  ===> : WILL SWITCH to UHF/UKS


INFO   : the flag for use of the SHARK integral package has been found!

================================================================================
                                       INPUT FILE
================================================================================
NAME = 11_1_orca.inp
|  1> ! EnGrad PBE0 RIJCOSX D3BJ def2-SVP def2/J 
|  2> %output 
|  3> xyzfile=True 
|  4> end 
|  5> %scf 
|  6> maxiter 250 
|  7> end
|  8> %output
|  9> Print[P_Hirshfeld] = 1
| 10> end
| 11> % maxcore
| 12> 4000
| 13> *xyz 0 2
| 14> O   -2.33825337  -0.42657023   1.77710415 
| 15> O   -0.54654223  -0.24692465   0.90614012 
| 16> C   -0.73637686   0.24085912  -0.40588576 
| 17> C    0.18147527   0.91822906   0.54407499 
| 18> C    1.53744732   0.41142164   0.28152275 
| 19> C    1.46869884  -0.64230333  -0.62672132 
| 20> C    0.07007568  -0.63705473  -1.30312677 
| 21> H   -2.23112232   0.50938047   2.00815321 
| 22> H   -1.74651745   0.59826396  -0.62638920 
| 23> H   -0.07830445   1.82027717   1.10491688 
| 24> H    2.43801999   0.66419940   0.83961268 
| 25> H    2.15793785  -1.32473724  -0.79735617 
| 26> H    0.21334503  -0.24956049  -2.32624833 
| 27> H   -0.38983815  -1.63528590  -1.37558419 
| 28> *
| 29> 
| 30>                          ****END OF INPUT****
================================================================================

                     *******************************
                     * Energy+Gradient Calculation *
                     *******************************

---------------------------------
CARTESIAN COORDINATES (ANGSTROEM)
---------------------------------
  O     -2.338253   -0.426570    1.777104
  O     -0.546542   -0.246925    0.906140
  C     -0.736377    0.240859   -0.405886
  C      0.181475    0.918229    0.544075
  C      1.537447    0.411422    0.281523
  C      1.468699   -0.642303   -0.626721
  C      0.070076   -0.637055   -1.303127
  H     -2.231122    0.509380    2.008153
  H     -1.746517    0.598264   -0.626389
  H     -0.078304    1.820277    1.104917
  H      2.438020    0.664199    0.839613
  H      2.157938   -1.324737   -0.797356
  H      0.213345   -0.249560   -2.326248
  H     -0.389838   -1.635286   -1.375584

----------------------------
CARTESIAN COORDINATES (A.U.)
----------------------------
  NO LB      ZA    FRAG     MASS         X           Y           Z
   0 O     8.0000    0    15.999   -4.418659   -0.806101    3.358240
   1 O     8.0000    0    15.999   -1.032815   -0.466620    1.712357
   2 C     6.0000    0    12.011   -1.391551    0.455158   -0.767013
   3 C     6.0000    0    12.011    0.342939    1.735201    1.028153
   4 C     6.0000    0    12.011    2.905354    0.777474    0.532001
   5 C     6.0000    0    12.011    2.775439   -1.213777   -1.184332
   6 C     6.0000    0    12.011    0.132424   -1.203859   -2.462553
   7 H     1.0000    0     1.008   -4.216210    0.962590    3.794860
   8 H     1.0000    0     1.008   -3.300440    1.130555   -1.183704
   9 H     1.0000    0     1.008   -0.147974    3.439825    2.087990
  10 H     1.0000    0     1.008    4.607190    1.255155    1.586638
  11 H     1.0000    0     1.008    4.077912   -2.503391   -1.506785
  12 H     1.0000    0     1.008    0.403164   -0.471601   -4.395972
  13 H     1.0000    0     1.008   -0.736687   -3.090243   -2.599477

--------------------------------
INTERNAL COORDINATES (ANGSTROEM)
--------------------------------
 O      0   0   0     0.000000000000     0.00000000     0.00000000
 O      1   0   0     2.000269903080     0.00000000     0.00000000
 C      2   1   0     1.412579945636   108.36468660     0.00000000
 C      2   1   3     1.420803929680   130.05952116    70.01685940
 C      4   2   1     1.471206185440   103.60584727   165.73024384
 C      5   4   2     1.392828042722   109.35946353    52.55606816
 C      3   2   1     1.492025421137   106.42307887   228.42769801
 H      1   2   3     0.969981671389    85.30377110   274.32409421
 H      3   2   1     1.093957950871   115.09531196    11.02326784
 H      4   2   1     1.093489790193   115.09138027    23.64531681
 H      5   4   2     1.089216277820   126.20403155   243.94722170
 H      6   5   4     0.984826231605   127.06204466   198.27580658
 H      7   3   2     1.103383713501   114.90762077   193.48483557
 H      7   3   2     1.101470052928   110.31162116    70.93189829

---------------------------
INTERNAL COORDINATES (A.U.)
---------------------------
 O      0   0   0     0.000000000000     0.00000000     0.00000000
 O      1   0   0     3.779962310746     0.00000000     0.00000000
 C      2   1   0     2.669389239521   108.36468660     0.00000000
 C      2   1   3     2.684930317095   130.05952116    70.01685940
 C      4   2   1     2.780176777013   103.60584727   165.73024384
 C      5   4   2     2.632063552391   109.35946353    52.55606816
 C      3   2   1     2.819519430798   106.42307887   228.42769801
 H      1   2   3     1.832999713849    85.30377110   274.32409421
 H      3   2   1     2.067280929171   115.09531196    11.02326784
 H      4   2   1     2.066396233704   115.09138027    23.64531681
 H      5   4   2     2.058320465690   126.20403155   243.94722170
 H      6   5   4     1.861051867236   127.06204466   198.27580658
 H      7   3   2     2.085093039146   114.90762077   193.48483557
 H      7   3   2     2.081476744750   110.31162116    70.93189829

---------------------
BASIS SET INFORMATION
---------------------
There are 3 groups of distinct atoms

 Group   1 Type O   : 7s4p1d contracted to 3s2p1d pattern {511/31/1}
 Group   2 Type C   : 7s4p1d contracted to 3s2p1d pattern {511/31/1}
 Group   3 Type H   : 4s1p contracted to 2s1p pattern {31/1}

Atom   0O    basis set group =>   1
Atom   1O    basis set group =>   1
Atom   2C    basis set group =>   2
Atom   3C    basis set group =>   2
Atom   4C    basis set group =>   2
Atom   5C    basis set group =>   2
Atom   6C    basis set group =>   2
Atom   7H    basis set group =>   3
Atom   8H    basis set group =>   3
Atom   9H    basis set group =>   3
Atom  10H    basis set group =>   3
Atom  11H    basis set group =>   3
Atom  12H    basis set group =>   3
Atom  13H    basis set group =>   3
---------------------------------
AUXILIARY/J BASIS SET INFORMATION
---------------------------------
There are 3 groups of distinct atoms

 Group   1 Type O   : 12s5p4d2f1g contracted to 6s4p3d1f1g pattern {711111/2111/211/2/1}
 Group   2 Type C   : 12s5p4d2f1g contracted to 6s4p3d1f1g pattern {711111/2111/211/2/1}
 Group   3 Type H   : 5s2p1d contracted to 3s1p1d pattern {311/2/1}

Atom   0O    basis set group =>   1
Atom   1O    basis set group =>   1
Atom   2C    basis set group =>   2
Atom   3C    basis set group =>   2
Atom   4C    basis set group =>   2
Atom   5C    basis set group =>   2
Atom   6C    basis set group =>   2
Atom   7H    basis set group =>   3
Atom   8H    basis set group =>   3
Atom   9H    basis set group =>   3
Atom  10H    basis set group =>   3
Atom  11H    basis set group =>   3
Atom  12H    basis set group =>   3
Atom  13H    basis set group =>   3
------------------------------------------------------------------------------
                           ORCA GTO INTEGRAL CALCULATION
                           -- RI-GTO INTEGRALS CHOSEN --
------------------------------------------------------------------------------
------------------------------------------------------------------------------
                   ___                                                        
                  /   \      - P O W E R E D   B Y -                         
                 /     \                                                     
                 |  |  |   _    _      __       _____    __    __             
                 |  |  |  | |  | |    /  \     |  _  \  |  |  /  |          
                  \  \/   | |  | |   /    \    | | | |  |  | /  /          
                 / \  \   | |__| |  /  /\  \   | |_| |  |  |/  /          
                |  |  |   |  __  | /  /__\  \  |    /   |      \           
                |  |  |   | |  | | |   __   |  |    \   |  |\   \          
                \     /   | |  | | |  |  |  |  | |\  \  |  | \   \       
                 \___/    |_|  |_| |__|  |__|  |_| \__\ |__|  \__/        
                                                                              
                      - O R C A' S   B I G   F R I E N D -                    
                                      &                                       
                       - I N T E G R A L  F E E D E R -                       
                                                                              
 v1 FN, 2020, v2 2021                                                         
------------------------------------------------------------------------------


Reading SHARK input file 11_1_orca.SHARKINP.tmp ... ok
----------------------
SHARK INTEGRAL PACKAGE
----------------------

Number of atoms                             ...     14
Number of basis functions                   ...    133
Number of shells                            ...     63
Maximum angular momentum                    ...      2
Integral batch strategy                     ... SHARK/LIBINT Hybrid
RI-J (if used) integral strategy            ... SPLIT-RIJ (Revised 2003 algorithm where possible)
Printlevel                                  ...      1
Contraction scheme used                     ... SEGMENTED contraction
Coulomb Range Separation                    ... NOT USED
Exchange Range Separation                   ... NOT USED
Finite Nucleus Model                        ... NOT USED
Auxiliary Coulomb fitting basis             ... AVAILABLE
   # of basis functions in Aux-J            ...    420
   # of shells in Aux-J                     ...    140
   Maximum angular momentum in Aux-J        ...      4
Auxiliary J/K fitting basis                 ... NOT available
Auxiliary Correlation fitting basis         ... NOT available
Auxiliary 'external' fitting basis          ... NOT available
Integral threshold                          ...     2.500000e-11
Primitive cut-off                           ...     2.500000e-12
Primitive pair pre-selection threshold      ...     2.500000e-12

Calculating pre-screening integrals         ... done (  0.0 sec) Dimension = 63
Organizing shell pair data                  ... done (  0.0 sec)
Shell pair information
Total number of shell pairs                 ...      2016
Shell pairs after pre-screening             ...      1950
Total number of primitive shell pairs       ...      7252
Primitive shell pairs kept                  ...      5355
          la=0 lb=0:    607 shell pairs
          la=1 lb=0:    711 shell pairs
          la=1 lb=1:    225 shell pairs
          la=2 lb=0:    237 shell pairs
          la=2 lb=1:    143 shell pairs
          la=2 lb=2:     27 shell pairs

Calculating one electron integrals          ... done (  0.0 sec)
Calculating RI/J V-Matrix + Cholesky decomp.... done (  0.0 sec)
Calculating Nuclear repulsion               ... done (  0.0 sec) ENN=    301.035345739090 Eh

SHARK setup successfully completed in   0.1 seconds

Maximum memory used throughout the entire GTOINT-calculation: 16.9 MB
-------------------------------------------------------------------------------
                                 ORCA SCF
-------------------------------------------------------------------------------

------------
SCF SETTINGS
------------
Hamiltonian:
 Density Functional     Method          .... DFT(GTOs)
 Exchange Functional    Exchange        .... PBE
   PBE kappa parameter   XKappa         ....  0.804000
   PBE mue parameter    XMuePBE         ....  0.219520
 Correlation Functional Correlation     .... PBE
   PBE beta parameter  CBetaPBE         ....  0.066725
 LDA part of GGA corr.  LDAOpt          .... PW91-LDA
 Gradients option       PostSCFGGA      .... off
 Hybrid DFT is turned on
   Fraction HF Exchange ScalHFX         ....  0.250000
   Scaling of DF-GGA-X  ScalDFX         ....  0.750000
   Scaling of DF-GGA-C  ScalDFC         ....  1.000000
   Scaling of DF-LDA-C  ScalLDAC        ....  1.000000
   Perturbative correction              ....  0.000000
   Density functional embedding theory  .... OFF
   NL short-range parameter             ....  6.900000
 RI-approximation to the Coulomb term is turned on
   Number of AuxJ basis functions       .... 420
   RIJ-COSX (HFX calculated with COS-X)).... on


General Settings:
 Integral files         IntName         .... 11_1_orca
 Hartree-Fock type      HFTyp           .... UHF
 Total Charge           Charge          ....    0
 Multiplicity           Mult            ....    2
 Number of Electrons    NEL             ....   53
 Basis Dimension        Dim             ....  133
 Nuclear Repulsion      ENuc            ....    301.0353457391 Eh

Convergence Acceleration:
 DIIS                   CNVDIIS         .... on
   Start iteration      DIISMaxIt       ....    12
   Startup error        DIISStart       ....  0.200000
   # of expansion vecs  DIISMaxEq       ....     5
   Bias factor          DIISBfac        ....   1.050
   Max. coefficient     DIISMaxC        ....  10.000
 Trust-Rad. Augm. Hess. CNVTRAH         .... auto
   Auto Start mean grad. ratio tolernc. ....  1.125000
   Auto Start start iteration           ....    20
   Auto Start num. interpolation iter.  ....    10
   Max. Number of Micro iterations      ....    16
   Max. Number of Macro iterations      .... Maxiter - #DIIS iter
   Number of Davidson start vectors     ....     2
   Converg. threshold I  (grad. norm)   ....   1.000e-05
   Converg. threshold II (energy diff.) ....   1.000e-08
   Grad. Scal. Fac. for Micro threshold ....   0.100
   Minimum threshold for Micro iter.    ....   0.010
   NR start threshold (gradient norm)   ....   0.001
   Initial trust radius                 ....   0.400
   Minimum AH scaling param. (alpha)    ....   1.000
   Maximum AH scaling param. (alpha)    .... 1000.000
   Orbital update algorithm             .... Taylor
   White noise on init. David. guess    .... on
   Maximum white noise                  ....   0.010
   Quad. conv. algorithm                .... NR
 SOSCF                  CNVSOSCF        .... off
 Level Shifting         CNVShift        .... on
   Level shift para.    LevelShift      ....    0.2500
   Turn off err/grad.   ShiftErr        ....    0.0010
 Zerner damping         CNVZerner       .... off
 Static damping         CNVDamp         .... on
   Fraction old density DampFac         ....    0.7000
   Max. Damping (<1)    DampMax         ....    0.9800
   Min. Damping (>=0)   DampMin         ....    0.0000
   Turn off err/grad.   DampErr         ....    0.1000
 Fernandez-Rico         CNVRico         .... off

SCF Procedure:
 Maximum # iterations   MaxIter         ....   250
 SCF integral mode      SCFMode         .... Direct
   Integral package                     .... SHARK and LIBINT hybrid scheme
 Reset frequency        DirectResetFreq ....    20
 Integral Threshold     Thresh          ....  2.500e-11 Eh
 Primitive CutOff       TCut            ....  2.500e-12 Eh

Convergence Tolerance:
 Convergence Check Mode ConvCheckMode   .... Total+1el-Energy
 Convergence forced     ConvForced      .... 0
 Energy Change          TolE            ....  1.000e-08 Eh
 1-El. energy change                    ....  1.000e-05 Eh
 DIIS Error             TolErr          ....  5.000e-07


Diagonalization of the overlap matrix:
Smallest eigenvalue                        ... 7.817e-04
Time for diagonalization                   ...    0.002 sec
Threshold for overlap eigenvalues          ... 1.000e-08
Number of eigenvalues below threshold      ... 0
Time for construction of square roots      ...    0.001 sec
Total time needed                          ...    0.003 sec

Time for model grid setup =    0.119 sec

------------------------------
INITIAL GUESS: MODEL POTENTIAL
------------------------------
Loading Hartree-Fock densities                     ... done
Calculating cut-offs                               ... done
Initializing the effective Hamiltonian             ... done
Setting up the integral package (SHARK)            ... done
Starting the Coulomb interaction                   ... done (   0.1 sec)
Reading the grid                                   ... done
Mapping shells                                     ... done
Starting the XC term evaluation                    ... done (   0.1 sec)
  promolecular density results
     # of electrons  =     52.998021057
     EX              =    -43.890531386
     EC              =     -1.757472577
     EX+EC           =    -45.648003963
Transforming the Hamiltonian                       ... done (   0.0 sec)
Diagonalizing the Hamiltonian                      ... done (   0.0 sec)
Back transforming the eigenvectors                 ... done (   0.0 sec)
Now organizing SCF variables                       ... done
                      ------------------
                      INITIAL GUESS DONE (   0.3 sec)
                      ------------------
-------------------
DFT GRID GENERATION
-------------------

General Integration Accuracy     IntAcc      ... 4.388
Radial Grid Type                 RadialGrid  ... OptM3 with GC (2021)
Angular Grid (max. ang.)         AngularGrid ... 4 (Lebedev-302)
Angular grid pruning method      GridPruning ... 4 (adaptive)
Weight generation scheme         WeightScheme... Becke
Basis function cutoff            BFCut       ... 1.0000e-11
Integration weight cutoff        WCut        ... 1.0000e-14
Angular grids for H and He will be reduced by one unit
Partially contracted basis set               ... off
Rotationally invariant grid construction     ... off

Total number of grid points                  ...    64855
Total number of batches                      ...     1019
Average number of points per batch           ...       63
Average number of grid points per atom       ...     4632
Time for grid setup =    0.490 sec

--------------------
COSX GRID GENERATION
--------------------

GRIDX 1
-------
General Integration Accuracy     IntAcc      ... 3.816
Radial Grid Type                 RadialGrid  ... OptM3 with GC (2021)
Angular Grid (max. ang.)         AngularGrid ... 1 (Lebedev-50)
Angular grid pruning method      GridPruning ... 4 (adaptive)
Weight generation scheme         WeightScheme... Becke
Basis function cutoff            BFCut       ... 1.0000e-11
Integration weight cutoff        WCut        ... 1.0000e-14
Angular grids for H and He will be reduced by one unit
Partially contracted basis set               ... on
Rotationally invariant grid construction     ... off

Total number of grid points                  ...     8299
Total number of batches                      ...      136
Average number of points per batch           ...       61
Average number of grid points per atom       ...      593
UseSFitting                                  ... on

GRIDX 2
-------
General Integration Accuracy     IntAcc      ... 4.020
Radial Grid Type                 RadialGrid  ... OptM3 with GC (2021)
Angular Grid (max. ang.)         AngularGrid ... 2 (Lebedev-110)
Angular grid pruning method      GridPruning ... 4 (adaptive)
Weight generation scheme         WeightScheme... Becke
Basis function cutoff            BFCut       ... 1.0000e-11
Integration weight cutoff        WCut        ... 1.0000e-14
Angular grids for H and He will be reduced by one unit
Partially contracted basis set               ... on
Rotationally invariant grid construction     ... off

Total number of grid points                  ...    18036
Total number of batches                      ...      288
Average number of points per batch           ...       62
Average number of grid points per atom       ...     1288
UseSFitting                                  ... on

GRIDX 3
-------
General Integration Accuracy     IntAcc      ... 4.338
Radial Grid Type                 RadialGrid  ... OptM3 with GC (2021)
Angular Grid (max. ang.)         AngularGrid ... 3 (Lebedev-194)
Angular grid pruning method      GridPruning ... 4 (adaptive)
Weight generation scheme         WeightScheme... Becke
Basis function cutoff            BFCut       ... 1.0000e-11
Integration weight cutoff        WCut        ... 1.0000e-14
Angular grids for H and He will be reduced by one unit
Partially contracted basis set               ... on
Rotationally invariant grid construction     ... off

Total number of grid points                  ...    39630
Total number of batches                      ...      627
Average number of points per batch           ...       63
Average number of grid points per atom       ...     2831
UseSFitting                                  ... on

Time for X-Grid setup             =    0.559 sec

--------------
SCF ITERATIONS
--------------
ITER       Energy         Delta-E        Max-DP      RMS-DP      [F,P]     Damp
               ***  Starting incremental Fock matrix formation  ***
  0   -344.1288229143   0.000000000000 0.05730526  0.00150812  0.1644382 0.7000
  1   -344.2242338031  -0.095410888833 0.04250107  0.00099978  0.0624197 0.7000
                               ***Turning on DIIS***
  2   -344.2626554001  -0.038421596983 0.08762621  0.00167831  0.0198798 0.0000
  3   -344.3311635043  -0.068508104203 0.03121715  0.00087392  0.0558127 0.0000
  4   -344.3463282360  -0.015164731659 0.00931047  0.00034623  0.0092360 0.0000
  5   -344.3478816586  -0.001553422582 0.00721908  0.00021713  0.0074398 0.0000
  6   -344.3485698777  -0.000688219102 0.00431572  0.00010835  0.0042145 0.0000
  7   -344.3487939930  -0.000224115329 0.00194350  0.00005615  0.0019145 0.0000
  8   -344.3488657525  -0.000071759544 0.00150214  0.00003510  0.0013911 0.0000
  9   -344.3488953601  -0.000029607591 0.00185784  0.00004608  0.0005762 0.0000
               *** Restarting incremental Fock matrix formation ***
                                   *** Resetting DIIS ***
 10   -344.3488956969  -0.000000336804 0.00065420  0.00001367  0.0003205 0.0000
 11   -344.3488975604  -0.000001863456 0.00024890  0.00000618  0.0003445 0.0000
 12   -344.3488986921  -0.000001131659 0.00065387  0.00001124  0.0002469 0.0000
 13   -344.3489002643  -0.000001572203 0.00068695  0.00001156  0.0001792 0.0000
 14   -344.3489013503  -0.000001086071 0.00066474  0.00001150  0.0001082 0.0000
 15   -344.3489018676  -0.000000517254 0.00014411  0.00000239  0.0000384 0.0000
 16   -344.3489019078  -0.000000040233 0.00008150  0.00000145  0.0000184 0.0000
 17   -344.3489019156  -0.000000007808 0.00001898  0.00000038  0.0000111 0.0000
                 **** Energy Check signals convergence ****

               *****************************************************
               *                     SUCCESS                       *
               *           SCF CONVERGED AFTER  18 CYCLES          *
               *****************************************************

Old exchange energy                            =    -11.191696147 Eh
New exchange energy                            =    -11.191663924 Eh
Exchange energy change after final integration =      0.000032223 Eh
Total energy after final integration           =   -344.348869699 Eh
Final COS-X integration done in                =     5.228 sec

----------------
TOTAL SCF ENERGY
----------------

Total Energy       :         -344.34886970 Eh           -9370.20912 eV

Components:
Nuclear Repulsion  :          301.03534574 Eh            8191.58821 eV
Electronic Energy  :         -645.38421544 Eh          -17561.79733 eV
One Electron Energy:        -1065.13669580 Eh          -28983.84300 eV
Two Electron Energy:          419.75248036 Eh           11422.04568 eV
Max COSX asymmetry :            0.00000091 Eh               0.00002 eV

Virial components:
Potential Energy   :         -686.04819396 Eh          -18668.32044 eV
Kinetic Energy     :          341.69932427 Eh            9298.11132 eV
Virial Ratio       :            2.00775403


DFT components:
N(Alpha)           :       26.999990131636 electrons
N(Beta)            :       25.999989811762 electrons
N(Total)           :       52.999979943398 electrons
E(X)               :      -33.496545250674 Eh       
E(C)               :       -1.772430691965 Eh       
E(XC)              :      -35.268975942639 Eh       
DFET-embed. en.    :        0.000000000000 Eh       

---------------
SCF CONVERGENCE
---------------

  Last Energy change         ...   -5.6899e-09  Tolerance :   1.0000e-08
  Last MAX-Density change    ...    0.0000e+00  Tolerance :   1.0000e-07
  Last RMS-Density change    ...    0.0000e+00  Tolerance :   5.0000e-09
  Last DIIS Error            ...    4.5914e-06  Tolerance :   5.0000e-07

             **** THE GBW FILE WAS UPDATED (11_1_orca.gbw) ****
             **** DENSITY 11_1_orca.scfp WAS UPDATED ****
             **** ENERGY FILE WAS UPDATED (11_1_orca.en.tmp) ****
----------------------
UHF SPIN CONTAMINATION
----------------------

Warning: in a DFT calculation there is little theoretical justification to 
         calculate <S**2> as in Hartree-Fock theory. We will do it anyways
         but you should keep in mind that the values have only limited relevance

Expectation value of <S**2>     :     0.754036
Ideal value S*(S+1) for S=0.5   :     0.750000
Deviation                       :     0.004036

             **** THE GBW FILE WAS UPDATED (11_1_orca.gbw) ****
             **** DENSITY 11_1_orca.scfp WAS UPDATED ****
----------------
ORBITAL ENERGIES
----------------
                 SPIN UP ORBITALS
  NO   OCC          E(Eh)            E(eV) 
   0   1.0000     -19.241757      -523.5948 
   1   1.0000     -19.196813      -522.3718 
   2   1.0000     -10.302001      -280.3317 
   3   1.0000     -10.298800      -280.2446 
   4   1.0000     -10.251961      -278.9700 
   5   1.0000     -10.249807      -278.9114 
   6   1.0000     -10.249041      -278.8906 
   7   1.0000      -1.136600       -30.9285 
   8   1.0000      -0.957406       -26.0523 
   9   1.0000      -0.837873       -22.7997 
  10   1.0000      -0.751445       -20.4479 
  11   1.0000      -0.691395       -18.8138 
  12   1.0000      -0.608270       -16.5519 
  13   1.0000      -0.590618       -16.0715 
  14   1.0000      -0.567066       -15.4307 
  15   1.0000      -0.483328       -13.1520 
  16   1.0000      -0.472835       -12.8665 
  17   1.0000      -0.448258       -12.1977 
  18   1.0000      -0.429156       -11.6779 
  19   1.0000      -0.417325       -11.3560 
  20   1.0000      -0.412334       -11.2202 
  21   1.0000      -0.376668       -10.2497 
  22   1.0000      -0.369197       -10.0464 
  23   1.0000      -0.325170        -8.8483 
  24   1.0000      -0.290208        -7.8970 
  25   1.0000      -0.281048        -7.6477 
  26   1.0000      -0.244145        -6.6435 
  27   0.0000      -0.017850        -0.4857 
  28   0.0000       0.063486         1.7275 
  29   0.0000       0.094888         2.5820 
  30   0.0000       0.103140         2.8066 
  31   0.0000       0.111402         3.0314 
  32   0.0000       0.129711         3.5296 
  33   0.0000       0.135464         3.6862 
  34   0.0000       0.145856         3.9690 
  35   0.0000       0.148342         4.0366 
  36   0.0000       0.181311         4.9337 
  37   0.0000       0.187381         5.0989 
  38   0.0000       0.212443         5.7809 
  39   0.0000       0.296556         8.0697 
  40   0.0000       0.318500         8.6668 
  41   0.0000       0.375219        10.2102 
  42   0.0000       0.401511        10.9257 
  43   0.0000       0.457659        12.4535 
  44   0.0000       0.470331        12.7984 
  45   0.0000       0.478791        13.0286 
  46   0.0000       0.504019        13.7151 
  47   0.0000       0.519921        14.1478 
  48   0.0000       0.546706        14.8766 
  49   0.0000       0.556536        15.1441 
  50   0.0000       0.565201        15.3799 
  51   0.0000       0.592966        16.1354 
  52   0.0000       0.613612        16.6972 
  53   0.0000       0.630873        17.1669 
  54   0.0000       0.650654        17.7052 
  55   0.0000       0.659456        17.9447 
  56   0.0000       0.668192        18.1824 
  57   0.0000       0.676558        18.4101 
  58   0.0000       0.681818        18.5532 
  59   0.0000       0.693453        18.8698 
  60   0.0000       0.707148        19.2425 
  61   0.0000       0.733725        19.9657 
  62   0.0000       0.758856        20.6495 
  63   0.0000       0.780038        21.2259 
  64   0.0000       0.797463        21.7001 
  65   0.0000       0.896045        24.3826 
  66   0.0000       0.933304        25.3965 
  67   0.0000       0.983022        26.7494 
  68   0.0000       0.987435        26.8695 
  69   0.0000       1.009296        27.4644 
  70   0.0000       1.048741        28.5377 
  71   0.0000       1.057472        28.7753 
  72   0.0000       1.122999        30.5584 
  73   0.0000       1.132238        30.8097 
  74   0.0000       1.203013        32.7357 
  75   0.0000       1.217234        33.1226 
  76   0.0000       1.314373        35.7659 
  77   0.0000       1.346158        36.6308 
  78   0.0000       1.458009        39.6744 
  79   0.0000       1.484717        40.4012 
  80   0.0000       1.491642        40.5896 
  81   0.0000       1.526903        41.5491 
  82   0.0000       1.535394        41.7802 
  83   0.0000       1.562945        42.5299 
  84   0.0000       1.593473        43.3606 
  85   0.0000       1.626639        44.2631 
  86   0.0000       1.660651        45.1886 
  87   0.0000       1.687445        45.9177 
  88   0.0000       1.712273        46.5933 
  89   0.0000       1.748518        47.5796 
  90   0.0000       1.764356        48.0106 
  91   0.0000       1.784666        48.5632 
  92   0.0000       1.819153        49.5017 
  93   0.0000       1.844727        50.1976 
  94   0.0000       1.864301        50.7302 
  95   0.0000       1.882635        51.2291 
  96   0.0000       1.940459        52.8026 
  97   0.0000       1.966759        53.5182 
  98   0.0000       2.008340        54.6497 
  99   0.0000       2.020650        54.9847 
 100   0.0000       2.051116        55.8137 
 101   0.0000       2.074284        56.4441 
 102   0.0000       2.110819        57.4383 
 103   0.0000       2.169791        59.0430 
 104   0.0000       2.183129        59.4060 
 105   0.0000       2.222109        60.4667 
 106   0.0000       2.249374        61.2086 
 107   0.0000       2.267708        61.7075 
 108   0.0000       2.295278        62.4577 
 109   0.0000       2.368299        64.4447 
 110   0.0000       2.432390        66.1887 
 111   0.0000       2.491361        67.7934 
 112   0.0000       2.542548        69.1862 
 113   0.0000       2.565522        69.8114 
 114   0.0000       2.626661        71.4751 
 115   0.0000       2.678658        72.8900 
 116   0.0000       2.725825        74.1735 
 117   0.0000       2.751311        74.8670 
 118   0.0000       2.768364        75.3310 
 119   0.0000       2.820959        76.7622 
 120   0.0000       2.840600        77.2967 
 121   0.0000       2.874728        78.2253 
 122   0.0000       2.904636        79.0392 
 123   0.0000       2.967550        80.7511 
 124   0.0000       3.019387        82.1617 
 125   0.0000       3.034456        82.5717 
 126   0.0000       3.078616        83.7734 
 127   0.0000       3.138886        85.4134 
 128   0.0000       3.182156        86.5909 
 129   0.0000       3.357443        91.3607 
 130   0.0000       3.435718        93.4906 
 131   0.0000       3.475852        94.5827 
 132   0.0000       3.764622       102.4406 

                 SPIN DOWN ORBITALS
  NO   OCC          E(Eh)            E(eV) 
   0   1.0000     -19.236065      -523.4399 
   1   1.0000     -19.171820      -521.6917 
   2   1.0000     -10.301751      -280.3249 
   3   1.0000     -10.299020      -280.2506 
   4   1.0000     -10.251957      -278.9699 
   5   1.0000     -10.250119      -278.9199 
   6   1.0000     -10.248337      -278.8714 
   7   1.0000      -1.129460       -30.7342 
   8   1.0000      -0.893955       -24.3258 
   9   1.0000      -0.834355       -22.7040 
  10   1.0000      -0.751330       -20.4447 
  11   1.0000      -0.687386       -18.7047 
  12   1.0000      -0.607317       -16.5259 
  13   1.0000      -0.589483       -16.0406 
  14   1.0000      -0.561694       -15.2845 
  15   1.0000      -0.474648       -12.9158 
  16   1.0000      -0.471099       -12.8193 
  17   1.0000      -0.442668       -12.0456 
  18   1.0000      -0.424250       -11.5444 
  19   1.0000      -0.415390       -11.3033 
  20   1.0000      -0.393114       -10.6972 
  21   1.0000      -0.374876       -10.2009 
  22   1.0000      -0.338504        -9.2112 
  23   1.0000      -0.304196        -8.2776 
  24   1.0000      -0.260711        -7.0943 
  25   1.0000      -0.255580        -6.9547 
  26   0.0000      -0.054744        -1.4897 
  27   0.0000      -0.012352        -0.3361 
  28   0.0000       0.066359         1.8057 
  29   0.0000       0.095950         2.6109 
  30   0.0000       0.104255         2.8369 
  31   0.0000       0.112294         3.0557 
  32   0.0000       0.131312         3.5732 
  33   0.0000       0.136471         3.7136 
  34   0.0000       0.146545         3.9877 
  35   0.0000       0.149637         4.0718 
  36   0.0000       0.185590         5.0502 
  37   0.0000       0.189238         5.1494 
  38   0.0000       0.213765         5.8169 
  39   0.0000       0.297245         8.0885 
  40   0.0000       0.318744         8.6735 
  41   0.0000       0.375475        10.2172 
  42   0.0000       0.401829        10.9343 
  43   0.0000       0.458648        12.4804 
  44   0.0000       0.471414        12.8278 
  45   0.0000       0.479522        13.0485 
  46   0.0000       0.505231        13.7480 
  47   0.0000       0.520624        14.1669 
  48   0.0000       0.548281        14.9195 
  49   0.0000       0.559432        15.2229 
  50   0.0000       0.566546        15.4165 
  51   0.0000       0.593165        16.1408 
  52   0.0000       0.614150        16.7119 
  53   0.0000       0.634000        17.2520 
  54   0.0000       0.651789        17.7361 
  55   0.0000       0.663182        18.0461 
  56   0.0000       0.672903        18.3106 
  57   0.0000       0.677034        18.4230 
  58   0.0000       0.682126        18.5616 
  59   0.0000       0.694577        18.9004 
  60   0.0000       0.707674        19.2568 
  61   0.0000       0.734118        19.9764 
  62   0.0000       0.759651        20.6712 
  63   0.0000       0.780674        21.2432 
  64   0.0000       0.797870        21.7112 
  65   0.0000       0.903408        24.5830 
  66   0.0000       0.940832        25.6013 
  67   0.0000       0.986598        26.8467 
  68   0.0000       1.009325        27.4651 
  69   0.0000       1.021843        27.8058 
  70   0.0000       1.061059        28.8729 
  71   0.0000       1.090872        29.6841 
  72   0.0000       1.137210        30.9451 
  73   0.0000       1.149596        31.2821 
  74   0.0000       1.207537        32.8587 
  75   0.0000       1.222515        33.2663 
  76   0.0000       1.320684        35.9376 
  77   0.0000       1.347027        36.6545 
  78   0.0000       1.457605        39.6634 
  79   0.0000       1.485579        40.4246 
  80   0.0000       1.508010        41.0351 
  81   0.0000       1.531446        41.6728 
  82   0.0000       1.536555        41.8118 
  83   0.0000       1.566108        42.6160 
  84   0.0000       1.596574        43.4450 
  85   0.0000       1.628226        44.3063 
  86   0.0000       1.662342        45.2346 
  87   0.0000       1.690132        45.9908 
  88   0.0000       1.713226        46.6192 
  89   0.0000       1.749535        47.6073 
  90   0.0000       1.765573        48.0437 
  91   0.0000       1.786371        48.6096 
  92   0.0000       1.822061        49.5808 
  93   0.0000       1.845696        50.2239 
  94   0.0000       1.865341        50.7585 
  95   0.0000       1.885074        51.2955 
  96   0.0000       1.941102        52.8201 
  97   0.0000       1.968382        53.5624 
  98   0.0000       2.008988        54.6673 
  99   0.0000       2.021630        55.0114 
 100   0.0000       2.052478        55.8508 
 101   0.0000       2.075069        56.4655 
 102   0.0000       2.112553        57.4855 
 103   0.0000       2.170109        59.0517 
 104   0.0000       2.184066        59.4314 
 105   0.0000       2.224293        60.5261 
 106   0.0000       2.263325        61.5882 
 107   0.0000       2.269800        61.7644 
 108   0.0000       2.296934        62.5028 
 109   0.0000       2.368947        64.4623 
 110   0.0000       2.433038        66.2063 
 111   0.0000       2.492099        67.8135 
 112   0.0000       2.543551        69.2135 
 113   0.0000       2.567102        69.8544 
 114   0.0000       2.629364        71.5486 
 115   0.0000       2.726073        74.1802 
 116   0.0000       2.745049        74.6966 
 117   0.0000       2.761966        75.1569 
 118   0.0000       2.785652        75.8014 
 119   0.0000       2.844393        77.3999 
 120   0.0000       2.859803        77.8192 
 121   0.0000       2.877584        78.3030 
 122   0.0000       2.916265        79.3556 
 123   0.0000       2.996266        81.5326 
 124   0.0000       3.030875        82.4743 
 125   0.0000       3.078660        83.7746 
 126   0.0000       3.079898        83.8083 
 127   0.0000       3.149194        85.6939 
 128   0.0000       3.186067        86.6973 
 129   0.0000       3.364733        91.5590 
 130   0.0000       3.439041        93.5811 
 131   0.0000       3.478977        94.6678 
 132   0.0000       3.786614       103.0390 

                    ********************************
                    * MULLIKEN POPULATION ANALYSIS *
                    ********************************

--------------------------------------------
MULLIKEN ATOMIC CHARGES AND SPIN POPULATIONS
--------------------------------------------
   0 O :   -0.254269    0.882343
   1 O :   -0.283601    0.113718
   2 C :    0.030039   -0.010153
   3 C :    0.069964    0.010653
   4 C :    0.019732   -0.031331
   5 C :   -0.070852    0.051861
   6 C :    0.068835   -0.001673
   7 H :    0.153715   -0.021811
   8 H :    0.055134    0.003377
   9 H :    0.044457    0.003071
  10 H :    0.038667    0.001644
  11 H :   -0.014078   -0.002317
  12 H :    0.067381    0.000273
  13 H :    0.074877    0.000346
Sum of atomic charges         :   -0.0000000
Sum of atomic spin populations:    1.0000000

-----------------------------------------------------
MULLIKEN REDUCED ORBITAL CHARGES AND SPIN POPULATIONS
-----------------------------------------------------
CHARGE
  0 O s       :     3.862005  s :     3.862005
      pz      :     1.771487  p :     4.384874
      px      :     1.254625
      py      :     1.358762
      dz2     :     0.001042  d :     0.007391
      dxz     :     0.000418
      dyz     :     0.001388
      dx2y2   :     0.003804
      dxy     :     0.000739
  1 O s       :     3.871136  s :     3.871136
      pz      :     1.346638  p :     4.390469
      px      :     1.590581
      py      :     1.453251
      dz2     :     0.006041  d :     0.021996
      dxz     :     0.003169
      dyz     :     0.005584
      dx2y2   :     0.003287
      dxy     :     0.003914
  2 C s       :     3.188012  s :     3.188012
      pz      :     0.769146  p :     2.708997
      px      :     0.987402
      py      :     0.952449
      dz2     :     0.021741  d :     0.072953
      dxz     :     0.016427
      dyz     :     0.018530
      dx2y2   :     0.007230
      dxy     :     0.009024
  3 C s       :     3.169753  s :     3.169753
      pz      :     0.958050  p :     2.687548
      px      :     0.918729
      py      :     0.810769
      dz2     :     0.008559  d :     0.072735
      dxz     :     0.011870
      dyz     :     0.013552
      dx2y2   :     0.018967
      dxy     :     0.019787
  4 C s       :     3.161774  s :     3.161774
      pz      :     0.976381  p :     2.786116
      px      :     0.850066
      py      :     0.959669
      dz2     :     0.005416  d :     0.032378
      dxz     :     0.007876
      dyz     :     0.004551
      dx2y2   :     0.007248
      dxy     :     0.007287
  5 C s       :     3.212762  s :     3.212762
      pz      :     0.973401  p :     2.825759
      px      :     0.935665
      py      :     0.916693
      dz2     :     0.006972  d :     0.032332
      dxz     :     0.005654
      dyz     :     0.004520
      dx2y2   :     0.006495
      dxy     :     0.008691
  6 C s       :     2.964497  s :     2.964497
      pz      :     0.977694  p :     2.932464
      px      :     0.936230
      py      :     1.018539
      dz2     :     0.007649  d :     0.034205
      dxz     :     0.006909
      dyz     :     0.005454
      dx2y2   :     0.007178
      dxy     :     0.007016
  7 H s       :     0.778380  s :     0.778380
      pz      :     0.020869  p :     0.067906
      px      :     0.013906
      py      :     0.033131
  8 H s       :     0.922521  s :     0.922521
      pz      :     0.002463  p :     0.022345
      px      :     0.014711
      py      :     0.005171
  9 H s       :     0.933168  s :     0.933168
      pz      :     0.007218  p :     0.022375
      px      :     0.003164
      py      :     0.011993
 10 H s       :     0.937156  s :     0.937156
      pz      :     0.007621  p :     0.024177
      px      :     0.011830
      py      :     0.004726
 11 H s       :     0.985055  s :     0.985055
      pz      :     0.006330  p :     0.029023
      px      :     0.011086
      py      :     0.011607
 12 H s       :     0.909298  s :     0.909298
      pz      :     0.012964  p :     0.023322
      px      :     0.004659
      py      :     0.005699
 13 H s       :     0.901920  s :     0.901920
      pz      :     0.004380  p :     0.023203
      px      :     0.005734
      py      :     0.013090

SPIN
  0 O s       :     0.011714  s :     0.011714
      pz      :     0.143048  p :     0.870314
      px      :     0.708608
      py      :     0.018658
      dz2     :     0.000076  d :     0.000316
      dxz     :     0.000116
      dyz     :     0.000033
      dx2y2   :    -0.000186
      dxy     :     0.000277
  1 O s       :     0.014563  s :     0.014563
      pz      :     0.024159  p :     0.098413
      px      :     0.064252
      py      :     0.010002
      dz2     :    -0.000166  d :     0.000742
      dxz     :     0.000478
      dyz     :     0.000024
      dx2y2   :     0.000195
      dxy     :     0.000211
  2 C s       :    -0.001987  s :    -0.001987
      pz      :    -0.005367  p :    -0.009135
      px      :    -0.002263
      py      :    -0.001504
      dz2     :     0.000110  d :     0.000969
      dxz     :     0.000713
      dyz     :    -0.000014
      dx2y2   :     0.000036
      dxy     :     0.000124
  3 C s       :     0.001034  s :     0.001034
      pz      :     0.004485  p :     0.008749
      px      :     0.001683
      py      :     0.002581
      dz2     :     0.000043  d :     0.000870
      dxz     :    -0.000037
      dyz     :    -0.000031
      dx2y2   :     0.001075
      dxy     :    -0.000180
  4 C s       :    -0.004758  s :    -0.004758
      pz      :    -0.015112  p :    -0.027028
      px      :     0.001055
      py      :    -0.012971
      dz2     :     0.000125  d :     0.000455
      dxz     :     0.000084
      dyz     :     0.000048
      dx2y2   :     0.000122
      dxy     :     0.000075
  5 C s       :     0.006969  s :     0.006969
      pz      :     0.022254  p :     0.045132
      px      :     0.006378
      py      :     0.016500
      dz2     :    -0.000090  d :    -0.000240
      dxz     :    -0.000023
      dyz     :    -0.000072
      dx2y2   :    -0.000051
      dxy     :    -0.000004
  6 C s       :    -0.000904  s :    -0.000904
      pz      :    -0.000059  p :    -0.000903
      px      :    -0.001415
      py      :     0.000571
      dz2     :     0.000012  d :     0.000133
      dxz     :     0.000046
      dyz     :     0.000013
      dx2y2   :     0.000003
      dxy     :     0.000060
  7 H s       :    -0.027321  s :    -0.027321
      pz      :     0.000494  p :     0.005510
      px      :     0.004815
      py      :     0.000201
  8 H s       :     0.003451  s :     0.003451
      pz      :    -0.000032  p :    -0.000074
      px      :    -0.000034
      py      :    -0.000008
  9 H s       :     0.003090  s :     0.003090
      pz      :    -0.000017  p :    -0.000019
      px      :    -0.000011
      py      :     0.000009
 10 H s       :     0.001785  s :     0.001785
      pz      :    -0.000049  p :    -0.000141
      px      :    -0.000015
      py      :    -0.000077
 11 H s       :    -0.002717  s :    -0.002717
      pz      :     0.000197  p :     0.000399
      px      :     0.000078
      py      :     0.000124
 12 H s       :     0.000244  s :     0.000244
      pz      :    -0.000005  p :     0.000029
      px      :     0.000027
      py      :     0.000007
 13 H s       :     0.000357  s :     0.000357
      pz      :    -0.000002  p :    -0.000011
      px      :    -0.000006
      py      :    -0.000002


                     *******************************
                     * LOEWDIN POPULATION ANALYSIS *
                     *******************************

-------------------------------------------
LOEWDIN ATOMIC CHARGES AND SPIN POPULATIONS
-------------------------------------------
   0 O :   -0.166303    0.838774
   1 O :   -0.085397    0.130230
   2 C :    0.060684   -0.005020
   3 C :    0.041918    0.009288
   4 C :   -0.045743   -0.021567
   5 C :    0.022146    0.039544
   6 C :   -0.044202    0.000402
   7 H :    0.037677    0.003043
   8 H :    0.027377    0.001806
   9 H :    0.025044    0.001906
  10 H :    0.031897    0.000326
  11 H :    0.001142    0.000623
  12 H :    0.044184    0.000420
  13 H :    0.049575    0.000225

----------------------------------------------------
LOEWDIN REDUCED ORBITAL CHARGES AND SPIN POPULATIONS
----------------------------------------------------
CHARGE
  0 O s       :     3.685418  s :     3.685418
      pz      :     1.753052  p :     4.467547
      px      :     1.255043
      py      :     1.459451
      dz2     :     0.002060  d :     0.013337
      dxz     :     0.000828
      dyz     :     0.001888
      dx2y2   :     0.007862
      dxy     :     0.000699
  1 O s       :     3.552076  s :     3.552076
      pz      :     1.405947  p :     4.496340
      px      :     1.578169
      py      :     1.512223
      dz2     :     0.009786  d :     0.036981
      dxz     :     0.005025
      dyz     :     0.010353
      dx2y2   :     0.005115
      dxy     :     0.006702
  2 C s       :     2.855517  s :     2.855517
      pz      :     0.862191  p :     2.922482
      px      :     1.052016
      py      :     1.008275
      dz2     :     0.044466  d :     0.161317
      dxz     :     0.038851
      dyz     :     0.041589
      dx2y2   :     0.015017
      dxy     :     0.021395
  3 C s       :     2.857004  s :     2.857004
      pz      :     1.018064  p :     2.939263
      px      :     0.991946
      py      :     0.929252
      dz2     :     0.018625  d :     0.161816
      dxz     :     0.027267
      dyz     :     0.029759
      dx2y2   :     0.044426
      dxy     :     0.041738
  4 C s       :     2.889157  s :     2.889157
      pz      :     1.024272  p :     3.073025
      px      :     1.022796
      py      :     1.025956
      dz2     :     0.011990  d :     0.083561
      dxz     :     0.019999
      dyz     :     0.012864
      dx2y2   :     0.020509
      dxy     :     0.018199
  5 C s       :     2.873648  s :     2.873648
      pz      :     0.995520  p :     3.023564
      px      :     1.002813
      py      :     1.025231
      dz2     :     0.014465  d :     0.080642
      dxz     :     0.013585
      dyz     :     0.013492
      dx2y2   :     0.018324
      dxy     :     0.020776
  6 C s       :     2.846766  s :     2.846766
      pz      :     1.039952  p :     3.109957
      px      :     1.012719
      py      :     1.057287
      dz2     :     0.019829  d :     0.087480
      dxz     :     0.017934
      dyz     :     0.013676
      dx2y2   :     0.018804
      dxy     :     0.017237
  7 H s       :     0.777999  s :     0.777999
      pz      :     0.053987  p :     0.184324
      px      :     0.035601
      py      :     0.094737
  8 H s       :     0.901243  s :     0.901243
      pz      :     0.010828  p :     0.071380
      px      :     0.043223
      py      :     0.017329
  9 H s       :     0.905219  s :     0.905219
      pz      :     0.022310  p :     0.069737
      px      :     0.012696
      py      :     0.034730
 10 H s       :     0.896320  s :     0.896320
      pz      :     0.022336  p :     0.071783
      px      :     0.035028
      py      :     0.014419
 11 H s       :     0.906555  s :     0.906555
      pz      :     0.022526  p :     0.092302
      px      :     0.035603
      py      :     0.034173
 12 H s       :     0.888294  s :     0.888294
      pz      :     0.037618  p :     0.067523
      px      :     0.013717
      py      :     0.016188
 13 H s       :     0.882452  s :     0.882452
      pz      :     0.012734  p :     0.067973
      px      :     0.017727
      py      :     0.037512

SPIN
  0 O s       :     0.010708  s :     0.010708
      pz      :     0.136990  p :     0.827948
      px      :     0.679821
      py      :     0.011138
      dz2     :    -0.000072  d :     0.000118
      dxz     :     0.000162
      dyz     :    -0.000075
      dx2y2   :     0.000022
      dxy     :     0.000081
  1 O s       :     0.020110  s :     0.020110
      pz      :     0.026287  p :     0.109102
      px      :     0.074340
      py      :     0.008475
      dz2     :    -0.000155  d :     0.001018
      dxz     :     0.000575
      dyz     :     0.000035
      dx2y2   :     0.000271
      dxy     :     0.000292
  2 C s       :    -0.000973  s :    -0.000973
      pz      :    -0.003353  p :    -0.006434
      px      :    -0.001061
      py      :    -0.002020
      dz2     :     0.000515  d :     0.002387
      dxz     :     0.001603
      dyz     :    -0.000076
      dx2y2   :     0.000117
      dxy     :     0.000228
  3 C s       :     0.000370  s :     0.000370
      pz      :     0.004058  p :     0.007476
      px      :     0.001027
      py      :     0.002390
      dz2     :    -0.000020  d :     0.001442
      dxz     :    -0.000074
      dyz     :     0.000024
      dx2y2   :     0.001831
      dxy     :    -0.000319
  4 C s       :    -0.000476  s :    -0.000476
      pz      :    -0.011820  p :    -0.022236
      px      :     0.000397
      py      :    -0.010812
      dz2     :     0.000261  d :     0.001144
      dxz     :     0.000176
      dyz     :     0.000081
      dx2y2   :     0.000442
      dxy     :     0.000183
  5 C s       :     0.001501  s :     0.001501
      pz      :     0.019877  p :     0.038568
      px      :     0.005827
      py      :     0.012864
      dz2     :    -0.000227  d :    -0.000525
      dxz     :    -0.000037
      dyz     :    -0.000101
      dx2y2   :    -0.000125
      dxy     :    -0.000035
  6 C s       :     0.000025  s :     0.000025
      pz      :     0.000042  p :     0.000047
      px      :    -0.000481
      py      :     0.000486
      dz2     :     0.000050  d :     0.000330
      dxz     :     0.000120
      dyz     :     0.000032
      dx2y2   :     0.000008
      dxy     :     0.000121
  7 H s       :    -0.018644  s :    -0.018644
      pz      :     0.003108  p :     0.021687
      px      :     0.015518
      py      :     0.003061
  8 H s       :     0.002055  s :     0.002055
      pz      :    -0.000116  p :    -0.000249
      px      :    -0.000046
      py      :    -0.000088
  9 H s       :     0.001830  s :     0.001830
      pz      :     0.000122  p :     0.000076
      px      :     0.000018
      py      :    -0.000063
 10 H s       :     0.000901  s :     0.000901
      pz      :    -0.000272  p :    -0.000575
      px      :    -0.000034
      py      :    -0.000269
 11 H s       :    -0.000989  s :    -0.000989
      pz      :     0.000771  p :     0.001612
      px      :     0.000314
      py      :     0.000526
 12 H s       :     0.000338  s :     0.000338
      pz      :    -0.000003  p :     0.000081
      px      :     0.000061
      py      :     0.000024
 13 H s       :     0.000251  s :     0.000251
      pz      :     0.000002  p :    -0.000026
      px      :    -0.000021
      py      :    -0.000007


                      *****************************
                      * MAYER POPULATION ANALYSIS *
                      *****************************

  NA   - Mulliken gross atomic population
  ZA   - Total nuclear charge
  QA   - Mulliken gross atomic charge
  VA   - Mayer's total valence
  BVA  - Mayer's bonded valence
  FA   - Mayer's free valence

  ATOM       NA         ZA         QA         VA         BVA        FA
  0 O      8.2543     8.0000    -0.2543     2.0092     1.2760     0.7332
  1 O      8.2836     8.0000    -0.2836     2.0694     2.0538     0.0156
  2 C      5.9700     6.0000     0.0300     3.9783     3.9783     0.0001
  3 C      5.9300     6.0000     0.0700     3.9148     3.9147     0.0002
  4 C      5.9803     6.0000     0.0197     3.7836     3.7828     0.0007
  5 C      6.0709     6.0000    -0.0709     3.9731     3.9713     0.0018
  6 C      5.9312     6.0000     0.0688     3.8247     3.8247     0.0000
  7 H      0.8463     1.0000     0.1537     1.0181     1.0169     0.0011
  8 H      0.9449     1.0000     0.0551     1.0132     1.0132     0.0000
  9 H      0.9555     1.0000     0.0445     0.9885     0.9885     0.0000
 10 H      0.9613     1.0000     0.0387     0.9890     0.9890     0.0000
 11 H      1.0141     1.0000    -0.0141     1.0020     1.0020     0.0000
 12 H      0.9326     1.0000     0.0674     0.9780     0.9780     0.0000
 13 H      0.9251     1.0000     0.0749     0.9809     0.9809     0.0000

  Mayer bond orders larger than 0.100000
B(  0-O ,  1-O ) :   0.1769 B(  0-O ,  7-H ) :   0.9985 B(  1-O ,  2-C ) :   0.9107 
B(  1-O ,  3-C ) :   0.8971 B(  2-C ,  3-C ) :   1.0142 B(  2-C ,  6-C ) :   1.0103 
B(  2-C ,  8-H ) :   0.9605 B(  3-C ,  4-C ) :   0.9887 B(  3-C ,  9-H ) :   0.9726 
B(  4-C ,  5-C ) :   1.8143 B(  4-C , 10-H ) :   0.9946 B(  5-C ,  6-C ) :   1.0084 
B(  5-C , 11-H ) :   0.9981 B(  6-C , 12-H ) :   0.9306 B(  6-C , 13-H ) :   0.9279 



------------------
HIRSHFELD ANALYSIS
------------------

Total integrated alpha density =     26.999990131
Total integrated beta density  =     25.999989812

  ATOM     CHARGE      SPIN    
   0 O   -0.263047    0.810971
   1 O   -0.119082    0.131346
   2 C    0.055755   -0.000487
   3 C    0.041804    0.009718
   4 C   -0.044809   -0.012959
   5 C   -0.018560    0.031549
   6 C   -0.037909    0.002577
   7 H    0.125221    0.020980
   8 H    0.050939    0.001591
   9 H    0.049557    0.001610
  10 H    0.041686   -0.000710
  11 H    0.039490    0.002708
  12 H    0.035760    0.000759
  13 H    0.043214    0.000348

  TOTAL   0.000020    1.000000

-------
TIMINGS
-------

Total SCF time: 0 days 0 hours 0 min 54 sec 

Total time                  ....      54.263 sec
Sum of individual times     ....      54.111 sec  ( 99.7%)

Fock matrix formation       ....      52.225 sec  ( 96.2%)
  Split-RI-J                ....       3.174 sec  (  6.1% of F)
  Chain of spheres X        ....      35.537 sec  ( 68.0% of F)
  XC integration            ....      13.523 sec  ( 25.9% of F)
    Basis function eval.    ....       3.760 sec  ( 27.8% of XC)
    Density eval.           ....       3.647 sec  ( 27.0% of XC)
    XC-Functional eval.     ....       1.299 sec  (  9.6% of XC)
    XC-Potential eval.      ....       4.515 sec  ( 33.4% of XC)
Diagonalization             ....       0.084 sec  (  0.2%)
Density matrix formation    ....       0.007 sec  (  0.0%)
Population analysis         ....       0.389 sec  (  0.7%)
Initial guess               ....       0.218 sec  (  0.4%)
Orbital Transformation      ....       0.000 sec  (  0.0%)
Orbital Orthonormalization  ....       0.000 sec  (  0.0%)
DIIS solution               ....       0.021 sec  (  0.0%)
Grid generation             ....       1.168 sec  (  2.2%)

Maximum memory used throughout the entire SCF-calculation: 63.5 MB


-------------------------------------------------------------------------------
                          DFT DISPERSION CORRECTION                            
                                                                               
                              DFTD3 V3.1  Rev 1                                
                          USING Becke-Johnson damping                          
-------------------------------------------------------------------------------
The PBE0 functional is recognized
Active option DFTDOPT                   ...         4   

molecular C6(AA) [au] = 1744.036814 


            DFT-D V3
 parameters
 s6 scaling factor         :     1.0000 
 a1 scaling factor         :     0.4145 
 s8 scaling factor         :     1.2177 
 a2 scaling factor         :     4.8593 
 ad hoc parameters k1-k3   :    16.0000     1.3333    -4.0000 

 Edisp/kcal,au: -6.172695147996  -0.009836814813 
 E6   /kcal   :  -3.927136871 
 E8   /kcal   :  -2.245558277 
 % E8         :  36.378894852 

-------------------------   ----------------
Dispersion correction           -0.009836815
-------------------------   ----------------


-------------------------   --------------------
FINAL SINGLE POINT ENERGY      -344.358706513371
-------------------------   --------------------

------------------------------------------------------------------------------
                         ORCA SCF GRADIENT CALCULATION
------------------------------------------------------------------------------

 ... reading COSX grid (gridx3)
Gradient of the Kohn-Sham DFT energy:
Kohn-Sham wavefunction type      ... UKS
Hartree-Fock exchange scaling    ...    0.250
Number of operators              ...    2
Number of atoms                  ...   14
Basis set dimensions             ...  133
Integral neglect threshold       ... 2.5e-11
Integral primitive cutoff        ... 2.5e-12
SHARK Integral package           ... ON

Nuc. rep. gradient       (SHARK) ... done (  0.0 sec)
HCore & Overlap gradient (SHARK) ... done (  0.1 sec)
RI-J gradient            (SHARK) ... done (  0.6 sec)
COSX-gradient                    ... done (  6.8 sec)
Exchange-correlation gradient    ... done
Dispersion correction            ... done

------------------
CARTESIAN GRADIENT
------------------

   1   O   :    0.024919256    0.000671474   -0.009959190
   2   O   :    0.010048687   -0.003913542   -0.003704901
   3   C   :   -0.010122018    0.004016923   -0.011528327
   4   C   :   -0.002487831    0.004869578    0.003355889
   5   C   :   -0.016693660    0.040406665    0.036977747
   6   C   :    0.092195718   -0.115812221   -0.039245481
   7   C   :   -0.026641754    0.007768486    0.003157041
   8   H   :    0.001650862    0.000224045   -0.002847715
   9   H   :   -0.000850258    0.000064516    0.001425689
  10   H   :   -0.002789056   -0.002268792    0.002072787
  11   H   :    0.000416978   -0.002312279   -0.002725661
  12   H   :   -0.073923520    0.066050081    0.021435530
  13   H   :    0.005500137   -0.000569578    0.001141362
  14   H   :   -0.001197923    0.000724069    0.000330806

Difference to translation invariance:
           :    0.0000256177   -0.0000805740   -0.0001144250

Difference to rotation invariance:
           :   -0.0001974435    0.0000452729    0.0000448957

Norm of the cartesian gradient     ...    0.1975332538
RMS gradient                       ...    0.0304800428
MAX gradient                       ...    0.1158122212

-------
TIMINGS
-------

Total SCF gradient time            ...       11.665 sec

One electron gradient       ....       0.100 sec  (  0.9%)
RI-J Coulomb gradient       ....       0.606 sec  (  5.2%)
COSX gradient               ....       6.820 sec  ( 58.5%)
XC gradient                 ....       3.816 sec  ( 32.7%)

Maximum memory used throughout the entire SCFGRAD-calculation: 50.3 MB

                            ***************************************
                            *     ORCA property calculations      *
                            ***************************************

                                    ---------------------
                                    Active property flags
                                    ---------------------
   (+) Dipole Moment


------------------------------------------------------------------------------
                       ORCA ELECTRIC PROPERTIES CALCULATION
------------------------------------------------------------------------------

Dipole Moment Calculation                       ... on
Quadrupole Moment Calculation                   ... off
Polarizability Calculation                      ... off
GBWName                                         ... 11_1_orca.gbw
Electron density                                ... 11_1_orca.scfp
The origin for moment calculation is the CENTER OF MASS  = (-0.295614, -0.131423  0.450151)

-------------
DIPOLE MOMENT
-------------
                                X             Y             Z
Electronic contribution:     -0.70078       0.10290       1.92919
Nuclear contribution   :      1.33034       0.80771      -2.63212
                        -----------------------------------------
Total Dipole Moment    :      0.62956       0.91061      -0.70294
                        -----------------------------------------
Magnitude (a.u.)       :      1.31136
Magnitude (Debye)      :      3.33322



--------------------
Rotational spectrum 
--------------------
 
Rotational constants in cm-1:     0.188971     0.068819     0.059329 
Rotational constants in MHz :  5665.222109  2063.151090  1778.650000 

 Dipole components along the rotational axes: 
x,y,z [a.u.] :    -0.913481     0.250228    -0.906981 
x,y,z [Debye]:    -2.321885     0.636030    -2.305363 

 

Timings for individual modules:

Sum of individual times         ...       66.135 sec (=   1.102 min)
GTO integral calculation        ...        0.161 sec (=   0.003 min)   0.2 %
SCF iterations                  ...       54.287 sec (=   0.905 min)  82.1 %
SCF Gradient evaluation         ...       11.687 sec (=   0.195 min)  17.7 %
                             ****ORCA TERMINATED NORMALLY****
TOTAL RUN TIME: 0 days 0 hours 1 minutes 6 seconds 290 msec
