
                                 *****************
                                 * O   R   C   A *
                                 *****************

                                            #,                                       
                                            ###                                      
                                            ####                                     
                                            #####                                    
                                            ######                                   
                                           ########,                                 
                                     ,,################,,,,,                         
                               ,,#################################,,                 
                          ,,##########################################,,             
                       ,#########################################, ''#####,          
                    ,#############################################,,   '####,        
                  ,##################################################,,,,####,       
                ,###########''''           ''''###############################       
              ,#####''   ,,,,##########,,,,          '''####'''          '####       
            ,##' ,,,,###########################,,,                        '##       
           ' ,,###''''                  '''############,,,                           
         ,,##''                                '''############,,,,        ,,,,,,###''
      ,#''                                            '''#######################'''  
     '                                                          ''''####''''         
             ,#######,   #######,   ,#######,      ##                                
            ,#'     '#,  ##    ##  ,#'     '#,    #''#        ######   ,####,        
            ##       ##  ##   ,#'  ##            #'  '#       #        #'  '#        
            ##       ##  #######   ##           ,######,      #####,   #    #        
            '#,     ,#'  ##    ##  '#,     ,#' ,#      #,         ##   #,  ,#        
             '#######'   ##     ##  '#######'  #'      '#     #####' # '####'        



                  #######################################################
                  #                        -***-                        #
                  #          Department of theory and spectroscopy      #
                  #    Directorship and core code : Frank Neese         #
                  #        Max Planck Institute fuer Kohlenforschung    #
                  #                Kaiser Wilhelm Platz 1               #
                  #                 D-45470 Muelheim/Ruhr               #
                  #                      Germany                        #
                  #                                                     #
                  #                  All rights reserved                #
                  #                        -***-                        #
                  #######################################################


                         Program Version 5.0.4 -  RELEASE  -


 With contributions from (in alphabetic order):
   Daniel Aravena         : Magnetic Suceptibility
   Michael Atanasov       : Ab Initio Ligand Field Theory (pilot matlab implementation)
   Alexander A. Auer      : GIAO ZORA, VPT2 properties, NMR spectrum
   Ute Becker             : Parallelization
   Giovanni Bistoni       : ED, misc. LED, open-shell LED, HFLD
   Martin Brehm           : Molecular dynamics
   Dmytro Bykov           : SCF Hessian
   Vijay G. Chilkuri      : MRCI spin determinant printing, contributions to CSF-ICE
   Dipayan Datta          : RHF DLPNO-CCSD density
   Achintya Kumar Dutta   : EOM-CC, STEOM-CC
   Dmitry Ganyushin       : Spin-Orbit,Spin-Spin,Magnetic field MRCI
   Miquel Garcia          : C-PCM and meta-GGA Hessian, CC/C-PCM, Gaussian charge scheme
   Yang Guo               : DLPNO-NEVPT2, F12-NEVPT2, CIM, IAO-localization
   Andreas Hansen         : Spin unrestricted coupled pair/coupled cluster methods
   Benjamin Helmich-Paris : MC-RPA, TRAH-SCF, COSX integrals
   Lee Huntington         : MR-EOM, pCC
   Robert Izsak           : Overlap fitted RIJCOSX, COSX-SCS-MP3, EOM
   Marcus Kettner         : VPT2
   Christian Kollmar      : KDIIS, OOCD, Brueckner-CCSD(T), CCSD density, CASPT2, CASPT2-K
   Simone Kossmann        : Meta GGA functionals, TD-DFT gradient, OOMP2, MP2 Hessian
   Martin Krupicka        : Initial AUTO-CI
   Lucas Lang             : DCDCAS
   Marvin Lechner         : AUTO-CI (C++ implementation), FIC-MRCC
   Dagmar Lenk            : GEPOL surface, SMD
   Dimitrios Liakos       : Extrapolation schemes; Compound Job, initial MDCI parallelization
   Dimitrios Manganas     : Further ROCIS development; embedding schemes
   Dimitrios Pantazis     : SARC Basis sets
   Anastasios Papadopoulos: AUTO-CI, single reference methods and gradients
   Taras Petrenko         : DFT Hessian,TD-DFT gradient, ASA, ECA, R-Raman, ABS, FL, XAS/XES, NRVS
   Peter Pinski           : DLPNO-MP2, DLPNO-MP2 Gradient
   Christoph Reimann      : Effective Core Potentials
   Marius Retegan         : Local ZFS, SOC
   Christoph Riplinger    : Optimizer, TS searches, QM/MM, DLPNO-CCSD(T), (RO)-DLPNO pert. Triples
   Tobias Risthaus        : Range-separated hybrids, TD-DFT gradient, RPA, STAB
   Michael Roemelt        : Original ROCIS implementation
   Masaaki Saitow         : Open-shell DLPNO-CCSD energy and density
   Barbara Sandhoefer     : DKH picture change effects
   Avijit Sen             : IP-ROCIS
   Kantharuban Sivalingam : CASSCF convergence, NEVPT2, FIC-MRCI
   Bernardo de Souza      : ESD, SOC TD-DFT
   Georgi Stoychev        : AutoAux, RI-MP2 NMR, DLPNO-MP2 response
   Willem Van den Heuvel  : Paramagnetic NMR
   Boris Wezisla          : Elementary symmetry handling
   Frank Wennmohs         : Technical directorship


 We gratefully acknowledge several colleagues who have allowed us to
 interface, adapt or use parts of their codes:
   Stefan Grimme, W. Hujo, H. Kruse, P. Pracht,  : VdW corrections, initial TS optimization,
                  C. Bannwarth, S. Ehlert          DFT functionals, gCP, sTDA/sTD-DF
   Ed Valeev, F. Pavosevic, A. Kumar             : LibInt (2-el integral package), F12 methods
   Garnet Chan, S. Sharma, J. Yang, R. Olivares  : DMRG
   Ulf Ekstrom                                   : XCFun DFT Library
   Mihaly Kallay                                 : mrcc  (arbitrary order and MRCC methods)
   Jiri Pittner, Ondrej Demel                    : Mk-CCSD
   Frank Weinhold                                : gennbo (NPA and NBO analysis)
   Christopher J. Cramer and Donald G. Truhlar   : smd solvation model
   Lars Goerigk                                  : TD-DFT with DH, B97 family of functionals
   V. Asgeirsson, H. Jonsson                     : NEB implementation
   FAccTs GmbH                                   : IRC, NEB, NEB-TS, DLPNO-Multilevel, CI-OPT
                                                   MM, QMMM, 2- and 3-layer-ONIOM, Crystal-QMMM,
                                                   LR-CPCM, SF, NACMEs, symmetry and pop. for TD-DFT,
                                                   nearIR, NL-DFT gradient (VV10), updates on ESD,
                                                   ML-optimized integration grids
   S Lehtola, MJT Oliveira, MAL Marques          : LibXC Library
   Liviu Ungur et al                             : ANISO software


 Your calculation uses the libint2 library for the computation of 2-el integrals
 For citations please refer to: http://libint.valeyev.net

 Your ORCA version has been built with support for libXC version: 5.1.0
 For citations please refer to: https://tddft.org/programs/libxc/

 This ORCA versions uses:
   CBLAS   interface :  Fast vector & matrix operations
   LAPACKE interface :  Fast linear algebra routines
   SCALAPACK package :  Parallel linear algebra routines
   Shared memory     :  Shared parallel matrices
   BLAS/LAPACK       :  OpenBLAS 0.3.15  USE64BITINT DYNAMIC_ARCH NO_AFFINITY SkylakeX SINGLE_THREADED
        Core in use  :  SkylakeX
   Copyright (c) 2011-2014, The OpenBLAS Project


Your calculation utilizes the atom-pairwise dispersion correction
with the Becke-Johnson damping scheme (D3BJ)
Cite in your paper:
S.Grimme, S.Ehrlich, L.Goerigk, J Comput Chem, (2011), 32, 1456–1465 
S.Grimme, J.Antony, S.Ehrlich and H.Krieg, J.Chem.Phys., 132, (2010), 154104 
   

================================================================================

----- Orbital basis set information -----
Your calculation utilizes the basis: def2-SVP
   F. Weigend and R. Ahlrichs, Phys. Chem. Chem. Phys. 7, 3297 (2005).

----- AuxJ basis set information -----
Your calculation utilizes the auxiliary basis: def2/J
   F. Weigend, Phys. Chem. Chem. Phys. 8, 1057 (2006).

================================================================================
                                        WARNINGS
                       Please study these warnings very carefully!
================================================================================


WARNING: your system is open-shell and RHF/RKS was chosen
  ===> : WILL SWITCH to UHF/UKS


INFO   : the flag for use of the SHARK integral package has been found!

================================================================================
                                       INPUT FILE
================================================================================
NAME = 11_2_orca.inp
|  1> ! EnGrad PBE0 RIJCOSX D3BJ def2-SVP def2/J 
|  2> %output 
|  3> xyzfile=True 
|  4> end 
|  5> %scf 
|  6> maxiter 250 
|  7> end
|  8> %output
|  9> Print[P_Hirshfeld] = 1
| 10> end
| 11> % maxcore
| 12> 4000
| 13> *xyz 0 2
| 14> O   -2.34417650  -0.42583708   1.77962345 
| 15> O   -0.54966510  -0.24676955   0.90669063 
| 16> C   -0.73331206   0.23940719  -0.40238585 
| 17> C    0.18207742   0.91641842   0.54323598 
| 18> C    1.54254375   0.39881313   0.27008963 
| 19> C    1.43798871  -0.60572619  -0.61311873 
| 20> C    0.07851558  -0.63953600  -1.30425887 
| 21> H   -2.23126975   0.51017355   2.00916455 
| 22> H   -1.74640822   0.59781503  -0.62683027 
| 23> H   -0.07788207   1.82046919   1.10457663 
| 24> H    2.43776038   0.66497119   0.84052910 
| 25> H    2.18126019  -1.34506665  -0.80433042 
| 26> H    0.21174369  -0.24927969  -2.32672327 
| 27> H   -0.38913923  -1.63563428  -1.37601747 
| 28> *
| 29> 
| 30>                          ****END OF INPUT****
================================================================================

                     *******************************
                     * Energy+Gradient Calculation *
                     *******************************

---------------------------------
CARTESIAN COORDINATES (ANGSTROEM)
---------------------------------
  O     -2.344177   -0.425837    1.779623
  O     -0.549665   -0.246770    0.906691
  C     -0.733312    0.239407   -0.402386
  C      0.182077    0.916418    0.543236
  C      1.542544    0.398813    0.270090
  C      1.437989   -0.605726   -0.613119
  C      0.078516   -0.639536   -1.304259
  H     -2.231270    0.510174    2.009165
  H     -1.746408    0.597815   -0.626830
  H     -0.077882    1.820469    1.104577
  H      2.437760    0.664971    0.840529
  H      2.181260   -1.345067   -0.804330
  H      0.211744   -0.249280   -2.326723
  H     -0.389139   -1.635634   -1.376017

----------------------------
CARTESIAN COORDINATES (A.U.)
----------------------------
  NO LB      ZA    FRAG     MASS         X           Y           Z
   0 O     8.0000    0    15.999   -4.429852   -0.804715    3.363001
   1 O     8.0000    0    15.999   -1.038717   -0.466327    1.713397
   2 C     6.0000    0    12.011   -1.385759    0.452414   -0.760399
   3 C     6.0000    0    12.011    0.344076    1.731780    1.026567
   4 C     6.0000    0    12.011    2.914985    0.753648    0.510395
   5 C     6.0000    0    12.011    2.717405   -1.144657   -1.158626
   6 C     6.0000    0    12.011    0.148373   -1.208548   -2.464692
   7 H     1.0000    0     1.008   -4.216489    0.964088    3.796771
   8 H     1.0000    0     1.008   -3.300233    1.129707   -1.184538
   9 H     1.0000    0     1.008   -0.147176    3.440188    2.087347
  10 H     1.0000    0     1.008    4.606699    1.256613    1.588370
  11 H     1.0000    0     1.008    4.121984   -2.541808   -1.519964
  12 H     1.0000    0     1.008    0.400138   -0.471070   -4.396870
  13 H     1.0000    0     1.008   -0.735367   -3.090901   -2.600296

--------------------------------
INTERNAL COORDINATES (ANGSTROEM)
--------------------------------
 O      0   0   0     0.000000000000     0.00000000     0.00000000
 O      1   0   0     2.003583802406     0.00000000     0.00000000
 C      2   1   0     1.408465568952   108.60302741     0.00000000
 C      2   1   3     1.421461449261   130.21070585    70.04277046
 C      4   2   1     1.481010735889   103.53543820   166.11492945
 C      5   4   2     1.341673585113   108.14951781    52.89155955
 C      3   2   1     1.498325796521   106.63710760   228.32624541
 H      1   2   3     0.970336513926    84.98805650   274.25585429
 H      3   2   1     1.097813876233   115.02658575    10.91439902
 H      4   2   1     1.095440576445   114.97018647    23.55959622
 H      5   4   2     1.094373846757   124.77129047   243.73874985
 H      6   5   4     1.065663511230   125.67692511   197.88521021
 H      7   3   2     1.102489531042   114.58583807   192.90046091
 H      7   3   2     1.102752057994   109.83263256    71.01870058

---------------------------
INTERNAL COORDINATES (A.U.)
---------------------------
 O      0   0   0     0.000000000000     0.00000000     0.00000000
 O      1   0   0     3.786224672908     0.00000000     0.00000000
 C      2   1   0     2.661614194377   108.60302741     0.00000000
 C      2   1   3     2.686172849030   130.21070585    70.04277046
 C      4   2   1     2.798704692227   103.53543820   166.11492945
 C      5   4   2     2.535395636979   108.14951781    52.89155955
 C      3   2   1     2.831425414813   106.63710760   228.32624541
 H      1   2   3     1.833670269064    84.98805650   274.25585429
 H      3   2   1     2.074567572099   115.02658575    10.91439902
 H      4   2   1     2.070082685465   114.97018647    23.55959622
 H      5   4   2     2.068066858496   124.77129047   243.73874985
 H      6   5   4     2.013812187138   125.67692511   197.88521021
 H      7   3   2     2.083403279184   114.58583807   192.90046091
 H      7   3   2     2.083899383226   109.83263256    71.01870058

---------------------
BASIS SET INFORMATION
---------------------
There are 3 groups of distinct atoms

 Group   1 Type O   : 7s4p1d contracted to 3s2p1d pattern {511/31/1}
 Group   2 Type C   : 7s4p1d contracted to 3s2p1d pattern {511/31/1}
 Group   3 Type H   : 4s1p contracted to 2s1p pattern {31/1}

Atom   0O    basis set group =>   1
Atom   1O    basis set group =>   1
Atom   2C    basis set group =>   2
Atom   3C    basis set group =>   2
Atom   4C    basis set group =>   2
Atom   5C    basis set group =>   2
Atom   6C    basis set group =>   2
Atom   7H    basis set group =>   3
Atom   8H    basis set group =>   3
Atom   9H    basis set group =>   3
Atom  10H    basis set group =>   3
Atom  11H    basis set group =>   3
Atom  12H    basis set group =>   3
Atom  13H    basis set group =>   3
---------------------------------
AUXILIARY/J BASIS SET INFORMATION
---------------------------------
There are 3 groups of distinct atoms

 Group   1 Type O   : 12s5p4d2f1g contracted to 6s4p3d1f1g pattern {711111/2111/211/2/1}
 Group   2 Type C   : 12s5p4d2f1g contracted to 6s4p3d1f1g pattern {711111/2111/211/2/1}
 Group   3 Type H   : 5s2p1d contracted to 3s1p1d pattern {311/2/1}

Atom   0O    basis set group =>   1
Atom   1O    basis set group =>   1
Atom   2C    basis set group =>   2
Atom   3C    basis set group =>   2
Atom   4C    basis set group =>   2
Atom   5C    basis set group =>   2
Atom   6C    basis set group =>   2
Atom   7H    basis set group =>   3
Atom   8H    basis set group =>   3
Atom   9H    basis set group =>   3
Atom  10H    basis set group =>   3
Atom  11H    basis set group =>   3
Atom  12H    basis set group =>   3
Atom  13H    basis set group =>   3
------------------------------------------------------------------------------
                           ORCA GTO INTEGRAL CALCULATION
                           -- RI-GTO INTEGRALS CHOSEN --
------------------------------------------------------------------------------
------------------------------------------------------------------------------
                   ___                                                        
                  /   \      - P O W E R E D   B Y -                         
                 /     \                                                     
                 |  |  |   _    _      __       _____    __    __             
                 |  |  |  | |  | |    /  \     |  _  \  |  |  /  |          
                  \  \/   | |  | |   /    \    | | | |  |  | /  /          
                 / \  \   | |__| |  /  /\  \   | |_| |  |  |/  /          
                |  |  |   |  __  | /  /__\  \  |    /   |      \           
                |  |  |   | |  | | |   __   |  |    \   |  |\   \          
                \     /   | |  | | |  |  |  |  | |\  \  |  | \   \       
                 \___/    |_|  |_| |__|  |__|  |_| \__\ |__|  \__/        
                                                                              
                      - O R C A' S   B I G   F R I E N D -                    
                                      &                                       
                       - I N T E G R A L  F E E D E R -                       
                                                                              
 v1 FN, 2020, v2 2021                                                         
------------------------------------------------------------------------------


Reading SHARK input file 11_2_orca.SHARKINP.tmp ... ok
----------------------
SHARK INTEGRAL PACKAGE
----------------------

Number of atoms                             ...     14
Number of basis functions                   ...    133
Number of shells                            ...     63
Maximum angular momentum                    ...      2
Integral batch strategy                     ... SHARK/LIBINT Hybrid
RI-J (if used) integral strategy            ... SPLIT-RIJ (Revised 2003 algorithm where possible)
Printlevel                                  ...      1
Contraction scheme used                     ... SEGMENTED contraction
Coulomb Range Separation                    ... NOT USED
Exchange Range Separation                   ... NOT USED
Finite Nucleus Model                        ... NOT USED
Auxiliary Coulomb fitting basis             ... AVAILABLE
   # of basis functions in Aux-J            ...    420
   # of shells in Aux-J                     ...    140
   Maximum angular momentum in Aux-J        ...      4
Auxiliary J/K fitting basis                 ... NOT available
Auxiliary Correlation fitting basis         ... NOT available
Auxiliary 'external' fitting basis          ... NOT available
Integral threshold                          ...     2.500000e-11
Primitive cut-off                           ...     2.500000e-12
Primitive pair pre-selection threshold      ...     2.500000e-12

Calculating pre-screening integrals         ... done (  0.0 sec) Dimension = 63
Organizing shell pair data                  ... done (  0.0 sec)
Shell pair information
Total number of shell pairs                 ...      2016
Shell pairs after pre-screening             ...      1949
Total number of primitive shell pairs       ...      7252
Primitive shell pairs kept                  ...      5359
          la=0 lb=0:    607 shell pairs
          la=1 lb=0:    710 shell pairs
          la=1 lb=1:    225 shell pairs
          la=2 lb=0:    237 shell pairs
          la=2 lb=1:    143 shell pairs
          la=2 lb=2:     27 shell pairs

Calculating one electron integrals          ... done (  0.0 sec)
Calculating RI/J V-Matrix + Cholesky decomp.... done (  0.0 sec)
Calculating Nuclear repulsion               ... done (  0.0 sec) ENN=    301.839123812814 Eh

SHARK setup successfully completed in   0.1 seconds

Maximum memory used throughout the entire GTOINT-calculation: 16.9 MB
-------------------------------------------------------------------------------
                                 ORCA SCF
-------------------------------------------------------------------------------

------------
SCF SETTINGS
------------
Hamiltonian:
 Density Functional     Method          .... DFT(GTOs)
 Exchange Functional    Exchange        .... PBE
   PBE kappa parameter   XKappa         ....  0.804000
   PBE mue parameter    XMuePBE         ....  0.219520
 Correlation Functional Correlation     .... PBE
   PBE beta parameter  CBetaPBE         ....  0.066725
 LDA part of GGA corr.  LDAOpt          .... PW91-LDA
 Gradients option       PostSCFGGA      .... off
 Hybrid DFT is turned on
   Fraction HF Exchange ScalHFX         ....  0.250000
   Scaling of DF-GGA-X  ScalDFX         ....  0.750000
   Scaling of DF-GGA-C  ScalDFC         ....  1.000000
   Scaling of DF-LDA-C  ScalLDAC        ....  1.000000
   Perturbative correction              ....  0.000000
   Density functional embedding theory  .... OFF
   NL short-range parameter             ....  6.900000
 RI-approximation to the Coulomb term is turned on
   Number of AuxJ basis functions       .... 420
   RIJ-COSX (HFX calculated with COS-X)).... on


General Settings:
 Integral files         IntName         .... 11_2_orca
 Hartree-Fock type      HFTyp           .... UHF
 Total Charge           Charge          ....    0
 Multiplicity           Mult            ....    2
 Number of Electrons    NEL             ....   53
 Basis Dimension        Dim             ....  133
 Nuclear Repulsion      ENuc            ....    301.8391238128 Eh

Convergence Acceleration:
 DIIS                   CNVDIIS         .... on
   Start iteration      DIISMaxIt       ....    12
   Startup error        DIISStart       ....  0.200000
   # of expansion vecs  DIISMaxEq       ....     5
   Bias factor          DIISBfac        ....   1.050
   Max. coefficient     DIISMaxC        ....  10.000
 Trust-Rad. Augm. Hess. CNVTRAH         .... auto
   Auto Start mean grad. ratio tolernc. ....  1.125000
   Auto Start start iteration           ....    20
   Auto Start num. interpolation iter.  ....    10
   Max. Number of Micro iterations      ....    16
   Max. Number of Macro iterations      .... Maxiter - #DIIS iter
   Number of Davidson start vectors     ....     2
   Converg. threshold I  (grad. norm)   ....   1.000e-05
   Converg. threshold II (energy diff.) ....   1.000e-08
   Grad. Scal. Fac. for Micro threshold ....   0.100
   Minimum threshold for Micro iter.    ....   0.010
   NR start threshold (gradient norm)   ....   0.001
   Initial trust radius                 ....   0.400
   Minimum AH scaling param. (alpha)    ....   1.000
   Maximum AH scaling param. (alpha)    .... 1000.000
   Orbital update algorithm             .... Taylor
   White noise on init. David. guess    .... on
   Maximum white noise                  ....   0.010
   Quad. conv. algorithm                .... NR
 SOSCF                  CNVSOSCF        .... off
 Level Shifting         CNVShift        .... on
   Level shift para.    LevelShift      ....    0.2500
   Turn off err/grad.   ShiftErr        ....    0.0010
 Zerner damping         CNVZerner       .... off
 Static damping         CNVDamp         .... on
   Fraction old density DampFac         ....    0.7000
   Max. Damping (<1)    DampMax         ....    0.9800
   Min. Damping (>=0)   DampMin         ....    0.0000
   Turn off err/grad.   DampErr         ....    0.1000
 Fernandez-Rico         CNVRico         .... off

SCF Procedure:
 Maximum # iterations   MaxIter         ....   250
 SCF integral mode      SCFMode         .... Direct
   Integral package                     .... SHARK and LIBINT hybrid scheme
 Reset frequency        DirectResetFreq ....    20
 Integral Threshold     Thresh          ....  2.500e-11 Eh
 Primitive CutOff       TCut            ....  2.500e-12 Eh

Convergence Tolerance:
 Convergence Check Mode ConvCheckMode   .... Total+1el-Energy
 Convergence forced     ConvForced      .... 0
 Energy Change          TolE            ....  1.000e-08 Eh
 1-El. energy change                    ....  1.000e-05 Eh
 DIIS Error             TolErr          ....  5.000e-07


Diagonalization of the overlap matrix:
Smallest eigenvalue                        ... 7.515e-04
Time for diagonalization                   ...    0.003 sec
Threshold for overlap eigenvalues          ... 1.000e-08
Number of eigenvalues below threshold      ... 0
Time for construction of square roots      ...    0.001 sec
Total time needed                          ...    0.003 sec

Time for model grid setup =    0.117 sec

------------------------------
INITIAL GUESS: MODEL POTENTIAL
------------------------------
Loading Hartree-Fock densities                     ... done
Calculating cut-offs                               ... done
Initializing the effective Hamiltonian             ... done
Setting up the integral package (SHARK)            ... done
Starting the Coulomb interaction                   ... done (   0.1 sec)
Reading the grid                                   ... done
Mapping shells                                     ... done
Starting the XC term evaluation                    ... done (   0.1 sec)
  promolecular density results
     # of electrons  =     52.998171830
     EX              =    -43.896957479
     EC              =     -1.758872917
     EX+EC           =    -45.655830396
Transforming the Hamiltonian                       ... done (   0.0 sec)
Diagonalizing the Hamiltonian                      ... done (   0.0 sec)
Back transforming the eigenvectors                 ... done (   0.0 sec)
Now organizing SCF variables                       ... done
                      ------------------
                      INITIAL GUESS DONE (   0.3 sec)
                      ------------------
-------------------
DFT GRID GENERATION
-------------------

General Integration Accuracy     IntAcc      ... 4.388
Radial Grid Type                 RadialGrid  ... OptM3 with GC (2021)
Angular Grid (max. ang.)         AngularGrid ... 4 (Lebedev-302)
Angular grid pruning method      GridPruning ... 4 (adaptive)
Weight generation scheme         WeightScheme... Becke
Basis function cutoff            BFCut       ... 1.0000e-11
Integration weight cutoff        WCut        ... 1.0000e-14
Angular grids for H and He will be reduced by one unit
Partially contracted basis set               ... off
Rotationally invariant grid construction     ... off

Total number of grid points                  ...    64862
Total number of batches                      ...     1020
Average number of points per batch           ...       63
Average number of grid points per atom       ...     4633
Time for grid setup =    0.481 sec

--------------------
COSX GRID GENERATION
--------------------

GRIDX 1
-------
General Integration Accuracy     IntAcc      ... 3.816
Radial Grid Type                 RadialGrid  ... OptM3 with GC (2021)
Angular Grid (max. ang.)         AngularGrid ... 1 (Lebedev-50)
Angular grid pruning method      GridPruning ... 4 (adaptive)
Weight generation scheme         WeightScheme... Becke
Basis function cutoff            BFCut       ... 1.0000e-11
Integration weight cutoff        WCut        ... 1.0000e-14
Angular grids for H and He will be reduced by one unit
Partially contracted basis set               ... on
Rotationally invariant grid construction     ... off

Total number of grid points                  ...     8300
Total number of batches                      ...      136
Average number of points per batch           ...       61
Average number of grid points per atom       ...      593
UseSFitting                                  ... on

GRIDX 2
-------
General Integration Accuracy     IntAcc      ... 4.020
Radial Grid Type                 RadialGrid  ... OptM3 with GC (2021)
Angular Grid (max. ang.)         AngularGrid ... 2 (Lebedev-110)
Angular grid pruning method      GridPruning ... 4 (adaptive)
Weight generation scheme         WeightScheme... Becke
Basis function cutoff            BFCut       ... 1.0000e-11
Integration weight cutoff        WCut        ... 1.0000e-14
Angular grids for H and He will be reduced by one unit
Partially contracted basis set               ... on
Rotationally invariant grid construction     ... off

Total number of grid points                  ...    18034
Total number of batches                      ...      289
Average number of points per batch           ...       62
Average number of grid points per atom       ...     1288
UseSFitting                                  ... on

GRIDX 3
-------
General Integration Accuracy     IntAcc      ... 4.338
Radial Grid Type                 RadialGrid  ... OptM3 with GC (2021)
Angular Grid (max. ang.)         AngularGrid ... 3 (Lebedev-194)
Angular grid pruning method      GridPruning ... 4 (adaptive)
Weight generation scheme         WeightScheme... Becke
Basis function cutoff            BFCut       ... 1.0000e-11
Integration weight cutoff        WCut        ... 1.0000e-14
Angular grids for H and He will be reduced by one unit
Partially contracted basis set               ... on
Rotationally invariant grid construction     ... off

Total number of grid points                  ...    39630
Total number of batches                      ...      626
Average number of points per batch           ...       63
Average number of grid points per atom       ...     2831
UseSFitting                                  ... on

Time for X-Grid setup             =    0.538 sec

--------------
SCF ITERATIONS
--------------
ITER       Energy         Delta-E        Max-DP      RMS-DP      [F,P]     Damp
               ***  Starting incremental Fock matrix formation  ***
  0   -344.1486289637   0.000000000000 0.05323587  0.00146137  0.1595812 0.7000
  1   -344.2408579681  -0.092229004362 0.03967328  0.00098186  0.0621522 0.7000
                               ***Turning on DIIS***
  2   -344.2788151352  -0.037957167101 0.08219533  0.00167399  0.0217904 0.0000
  3   -344.3453227603  -0.066507625167 0.02958926  0.00083599  0.0543104 0.0000
  4   -344.3598314476  -0.014508687302 0.00871499  0.00032744  0.0092490 0.0000
  5   -344.3611635686  -0.001332120961 0.00674568  0.00020569  0.0071523 0.0000
  6   -344.3617539117  -0.000590343104 0.00422887  0.00009976  0.0042097 0.0000
  7   -344.3619447530  -0.000190841262 0.00188021  0.00005153  0.0019632 0.0000
  8   -344.3620055842  -0.000060831233 0.00144705  0.00003274  0.0013440 0.0000
  9   -344.3620311207  -0.000025536457 0.00181572  0.00004240  0.0005932 0.0000
               *** Restarting incremental Fock matrix formation ***
                                   *** Resetting DIIS ***
 10   -344.3620247508   0.000006369852 0.00063584  0.00001210  0.0003170 0.0000
 11   -344.3620265265  -0.000001775661 0.00028405  0.00000539  0.0002651 0.0000
 12   -344.3620273130  -0.000000786578 0.00065668  0.00001064  0.0002409 0.0000
 13   -344.3620286287  -0.000001315684 0.00064353  0.00001009  0.0001722 0.0000
 14   -344.3620294530  -0.000000824250 0.00060915  0.00000960  0.0001052 0.0000
 15   -344.3620298403  -0.000000387286 0.00013946  0.00000208  0.0000415 0.0000
 16   -344.3620298770  -0.000000036768 0.00009082  0.00000140  0.0000212 0.0000
 17   -344.3620298873  -0.000000010243 0.00003185  0.00000057  0.0000103 0.0000
 18   -344.3620298959  -0.000000008665 0.00002787  0.00000047  0.0000068 0.0000
 19   -344.3620298986  -0.000000002664 0.00002363  0.00000041  0.0000056 0.0000
 20   -344.3620299005  -0.000000001921 0.00000883  0.00000020  0.0000045 0.0000
 21   -344.3620299003   0.000000000258 0.00000740  0.00000019  0.0000033 0.0000
 22   -344.3620299025  -0.000000002195 0.00000433  0.00000012  0.0000018 0.0000
 23   -344.3620299003   0.000000002187 0.00000258  0.00000007  0.0000019 0.0000
 24   -344.3620299048  -0.000000004564 0.00000184  0.00000005  0.0000018 0.0000
                 **** Energy Check signals convergence ****

               *****************************************************
               *                     SUCCESS                       *
               *           SCF CONVERGED AFTER  25 CYCLES          *
               *****************************************************

Old exchange energy                            =    -11.193482614 Eh
New exchange energy                            =    -11.193444426 Eh
Exchange energy change after final integration =      0.000038187 Eh
Total energy after final integration           =   -344.361991720 Eh
Final COS-X integration done in                =     4.873 sec

----------------
TOTAL SCF ENERGY
----------------

Total Energy       :         -344.36199172 Eh           -9370.56619 eV

Components:
Nuclear Repulsion  :          301.83912381 Eh            8213.46012 eV
Electronic Energy  :         -646.20111553 Eh          -17584.02631 eV
One Electron Energy:        -1066.79173637 Eh          -29028.87895 eV
Two Electron Energy:          420.59062084 Eh           11444.85264 eV
Max COSX asymmetry :            0.00000095 Eh               0.00003 eV

Virial components:
Potential Energy   :         -686.08118717 Eh          -18669.21823 eV
Kinetic Energy     :          341.71919545 Eh            9298.65204 eV
Virial Ratio       :            2.00773382


DFT components:
N(Alpha)           :       26.999994591541 electrons
N(Beta)            :       25.999994121450 electrons
N(Total)           :       52.999988712991 electrons
E(X)               :      -33.498929666372 Eh       
E(C)               :       -1.773705396805 Eh       
E(XC)              :      -35.272635063178 Eh       
DFET-embed. en.    :        0.000000000000 Eh       

---------------
SCF CONVERGENCE
---------------

  Last Energy change         ...   -2.3484e-09  Tolerance :   1.0000e-08
  Last MAX-Density change    ...    0.0000e+00  Tolerance :   1.0000e-07
  Last RMS-Density change    ...    0.0000e+00  Tolerance :   5.0000e-09
  Last DIIS Error            ...    1.6192e-06  Tolerance :   5.0000e-07

             **** THE GBW FILE WAS UPDATED (11_2_orca.gbw) ****
             **** DENSITY 11_2_orca.scfp WAS UPDATED ****
             **** ENERGY FILE WAS UPDATED (11_2_orca.en.tmp) ****
----------------------
UHF SPIN CONTAMINATION
----------------------

Warning: in a DFT calculation there is little theoretical justification to 
         calculate <S**2> as in Hartree-Fock theory. We will do it anyways
         but you should keep in mind that the values have only limited relevance

Expectation value of <S**2>     :     0.753489
Ideal value S*(S+1) for S=0.5   :     0.750000
Deviation                       :     0.003489

             **** THE GBW FILE WAS UPDATED (11_2_orca.gbw) ****
             **** DENSITY 11_2_orca.scfp WAS UPDATED ****
----------------
ORBITAL ENERGIES
----------------
                 SPIN UP ORBITALS
  NO   OCC          E(Eh)            E(eV) 
   0   1.0000     -19.240959      -523.5731 
   1   1.0000     -19.197060      -522.3786 
   2   1.0000     -10.300898      -280.3017 
   3   1.0000     -10.297687      -280.2143 
   4   1.0000     -10.250772      -278.9377 
   5   1.0000     -10.248089      -278.8647 
   6   1.0000     -10.244506      -278.7672 
   7   1.0000      -1.137488       -30.9526 
   8   1.0000      -0.957503       -26.0550 
   9   1.0000      -0.845828       -23.0162 
  10   1.0000      -0.752494       -20.4764 
  11   1.0000      -0.687874       -18.7180 
  12   1.0000      -0.608875       -16.5683 
  13   1.0000      -0.579991       -15.7824 
  14   1.0000      -0.567809       -15.4509 
  15   1.0000      -0.485110       -13.2005 
  16   1.0000      -0.471376       -12.8268 
  17   1.0000      -0.444957       -12.1079 
  18   1.0000      -0.426714       -11.6115 
  19   1.0000      -0.416419       -11.3313 
  20   1.0000      -0.411642       -11.2013 
  21   1.0000      -0.380371       -10.3504 
  22   1.0000      -0.368912       -10.0386 
  23   1.0000      -0.324388        -8.8270 
  24   1.0000      -0.292634        -7.9630 
  25   1.0000      -0.281190        -7.6516 
  26   1.0000      -0.247677        -6.7396 
  27   0.0000      -0.008597        -0.2339 
  28   0.0000       0.062275         1.6946 
  29   0.0000       0.093492         2.5441 
  30   0.0000       0.105802         2.8790 
  31   0.0000       0.109343         2.9754 
  32   0.0000       0.128176         3.4879 
  33   0.0000       0.134296         3.6544 
  34   0.0000       0.145100         3.9484 
  35   0.0000       0.147541         4.0148 
  36   0.0000       0.180841         4.9209 
  37   0.0000       0.192131         5.2282 
  38   0.0000       0.215685         5.8691 
  39   0.0000       0.302477         8.2308 
  40   0.0000       0.317082         8.6282 
  41   0.0000       0.390031        10.6133 
  42   0.0000       0.397349        10.8124 
  43   0.0000       0.455658        12.3991 
  44   0.0000       0.469386        12.7726 
  45   0.0000       0.477006        12.9800 
  46   0.0000       0.500697        13.6247 
  47   0.0000       0.517088        14.0707 
  48   0.0000       0.546565        14.8728 
  49   0.0000       0.556175        15.1343 
  50   0.0000       0.563257        15.3270 
  51   0.0000       0.595891        16.2150 
  52   0.0000       0.619252        16.8507 
  53   0.0000       0.630933        17.1685 
  54   0.0000       0.643071        17.4989 
  55   0.0000       0.657760        17.8986 
  56   0.0000       0.669936        18.2299 
  57   0.0000       0.676147        18.3989 
  58   0.0000       0.680175        18.5085 
  59   0.0000       0.683120        18.5887 
  60   0.0000       0.706786        19.2326 
  61   0.0000       0.726034        19.7564 
  62   0.0000       0.759836        20.6762 
  63   0.0000       0.779660        21.2156 
  64   0.0000       0.834520        22.7084 
  65   0.0000       0.897508        24.4224 
  66   0.0000       0.933974        25.4147 
  67   0.0000       0.981265        26.7016 
  68   0.0000       0.986524        26.8447 
  69   0.0000       1.011871        27.5344 
  70   0.0000       1.047200        28.4958 
  71   0.0000       1.056714        28.7546 
  72   0.0000       1.120627        30.4938 
  73   0.0000       1.130346        30.7583 
  74   0.0000       1.201812        32.7030 
  75   0.0000       1.217059        33.1179 
  76   0.0000       1.315322        35.7917 
  77   0.0000       1.350189        36.7405 
  78   0.0000       1.458379        39.6845 
  79   0.0000       1.481631        40.3172 
  80   0.0000       1.490600        40.5613 
  81   0.0000       1.527877        41.5756 
  82   0.0000       1.534316        41.7509 
  83   0.0000       1.559220        42.4285 
  84   0.0000       1.597304        43.4648 
  85   0.0000       1.631416        44.3931 
  86   0.0000       1.684220        45.8300 
  87   0.0000       1.689929        45.9853 
  88   0.0000       1.712669        46.6041 
  89   0.0000       1.743512        47.4434 
  90   0.0000       1.763649        47.9913 
  91   0.0000       1.787960        48.6529 
  92   0.0000       1.812144        49.3110 
  93   0.0000       1.843005        50.1507 
  94   0.0000       1.865576        50.7649 
  95   0.0000       1.881280        51.1922 
  96   0.0000       1.931020        52.5457 
  97   0.0000       1.965074        53.4724 
  98   0.0000       1.993334        54.2414 
  99   0.0000       2.017153        54.8895 
 100   0.0000       2.047870        55.7254 
 101   0.0000       2.062803        56.1317 
 102   0.0000       2.111699        57.4623 
 103   0.0000       2.155872        58.6642 
 104   0.0000       2.174612        59.1742 
 105   0.0000       2.227422        60.6112 
 106   0.0000       2.252151        61.2841 
 107   0.0000       2.266332        61.6700 
 108   0.0000       2.290254        62.3210 
 109   0.0000       2.378101        64.7114 
 110   0.0000       2.411395        65.6174 
 111   0.0000       2.516591        68.4799 
 112   0.0000       2.530350        68.8543 
 113   0.0000       2.571999        69.9877 
 114   0.0000       2.642439        71.9044 
 115   0.0000       2.677484        72.8580 
 116   0.0000       2.719882        74.0117 
 117   0.0000       2.745537        74.7099 
 118   0.0000       2.775196        75.5169 
 119   0.0000       2.783264        75.7365 
 120   0.0000       2.821556        76.7785 
 121   0.0000       2.866539        78.0025 
 122   0.0000       2.902627        78.9845 
 123   0.0000       2.964239        80.6610 
 124   0.0000       3.018443        82.1360 
 125   0.0000       3.030858        82.4738 
 126   0.0000       3.070132        83.5425 
 127   0.0000       3.125377        85.0458 
 128   0.0000       3.149252        85.6955 
 129   0.0000       3.348037        91.1047 
 130   0.0000       3.410023        92.7915 
 131   0.0000       3.475251        94.5664 
 132   0.0000       3.764266       102.4309 

                 SPIN DOWN ORBITALS
  NO   OCC          E(Eh)            E(eV) 
   0   1.0000     -19.235283      -523.4187 
   1   1.0000     -19.172008      -521.6968 
   2   1.0000     -10.300661      -280.2952 
   3   1.0000     -10.297898      -280.2201 
   4   1.0000     -10.250756      -278.9372 
   5   1.0000     -10.247548      -278.8500 
   6   1.0000     -10.244688      -278.7721 
   7   1.0000      -1.130406       -30.7599 
   8   1.0000      -0.894065       -24.3287 
   9   1.0000      -0.842169       -22.9166 
  10   1.0000      -0.752275       -20.4704 
  11   1.0000      -0.683881       -18.6093 
  12   1.0000      -0.607971       -16.5437 
  13   1.0000      -0.578685       -15.7468 
  14   1.0000      -0.562742       -15.3130 
  15   1.0000      -0.476211       -12.9584 
  16   1.0000      -0.469880       -12.7861 
  17   1.0000      -0.438634       -11.9358 
  18   1.0000      -0.422605       -11.4997 
  19   1.0000      -0.412119       -11.2143 
  20   1.0000      -0.395306       -10.7568 
  21   1.0000      -0.377739       -10.2788 
  22   1.0000      -0.338765        -9.2183 
  23   1.0000      -0.302443        -8.2299 
  24   1.0000      -0.265816        -7.2332 
  25   1.0000      -0.256534        -6.9806 
  26   0.0000      -0.053995        -1.4693 
  27   0.0000      -0.004354        -0.1185 
  28   0.0000       0.064941         1.7671 
  29   0.0000       0.094777         2.5790 
  30   0.0000       0.106719         2.9040 
  31   0.0000       0.110325         3.0021 
  32   0.0000       0.129993         3.5373 
  33   0.0000       0.134792         3.6679 
  34   0.0000       0.146399         3.9837 
  35   0.0000       0.148736         4.0473 
  36   0.0000       0.184585         5.0228 
  37   0.0000       0.194752         5.2995 
  38   0.0000       0.216731         5.8975 
  39   0.0000       0.303225         8.2512 
  40   0.0000       0.317357         8.6357 
  41   0.0000       0.390103        10.6153 
  42   0.0000       0.397809        10.8249 
  43   0.0000       0.456840        12.4312 
  44   0.0000       0.470069        12.7912 
  45   0.0000       0.477721        12.9994 
  46   0.0000       0.501836        13.6557 
  47   0.0000       0.517856        14.0916 
  48   0.0000       0.548121        14.9151 
  49   0.0000       0.558878        15.2079 
  50   0.0000       0.564458        15.3597 
  51   0.0000       0.596366        16.2279 
  52   0.0000       0.619864        16.8674 
  53   0.0000       0.633698        17.2438 
  54   0.0000       0.644548        17.5391 
  55   0.0000       0.661653        18.0045 
  56   0.0000       0.673246        18.3200 
  57   0.0000       0.677602        18.4385 
  58   0.0000       0.680468        18.5165 
  59   0.0000       0.684160        18.6169 
  60   0.0000       0.707323        19.2472 
  61   0.0000       0.726524        19.7697 
  62   0.0000       0.760695        20.6996 
  63   0.0000       0.780264        21.2321 
  64   0.0000       0.834934        22.7197 
  65   0.0000       0.905521        24.6405 
  66   0.0000       0.941116        25.6091 
  67   0.0000       0.984318        26.7846 
  68   0.0000       1.012191        27.5431 
  69   0.0000       1.020864        27.7791 
  70   0.0000       1.059387        28.8274 
  71   0.0000       1.090137        29.6641 
  72   0.0000       1.136016        30.9126 
  73   0.0000       1.146799        31.2060 
  74   0.0000       1.206550        32.8319 
  75   0.0000       1.222264        33.2595 
  76   0.0000       1.321826        35.9687 
  77   0.0000       1.350954        36.7613 
  78   0.0000       1.457912        39.6718 
  79   0.0000       1.482484        40.3404 
  80   0.0000       1.507051        41.0089 
  81   0.0000       1.531735        41.6806 
  82   0.0000       1.536091        41.7992 
  83   0.0000       1.562121        42.5075 
  84   0.0000       1.600449        43.5504 
  85   0.0000       1.632955        44.4350 
  86   0.0000       1.687083        45.9079 
  87   0.0000       1.691545        46.0293 
  88   0.0000       1.713645        46.6306 
  89   0.0000       1.744368        47.4667 
  90   0.0000       1.764465        48.0135 
  91   0.0000       1.790865        48.7319 
  92   0.0000       1.813945        49.3600 
  93   0.0000       1.843957        50.1766 
  94   0.0000       1.866514        50.7904 
  95   0.0000       1.883900        51.2635 
  96   0.0000       1.931694        52.5641 
  97   0.0000       1.966682        53.5161 
  98   0.0000       1.994025        54.2602 
  99   0.0000       2.017944        54.9111 
 100   0.0000       2.049113        55.7592 
 101   0.0000       2.063903        56.1617 
 102   0.0000       2.113480        57.5107 
 103   0.0000       2.156171        58.6724 
 104   0.0000       2.175521        59.1989 
 105   0.0000       2.230173        60.6861 
 106   0.0000       2.265109        61.6367 
 107   0.0000       2.268972        61.7419 
 108   0.0000       2.291786        62.3627 
 109   0.0000       2.378573        64.7243 
 110   0.0000       2.411898        65.6311 
 111   0.0000       2.517426        68.5026 
 112   0.0000       2.531235        68.8784 
 113   0.0000       2.574196        70.0474 
 114   0.0000       2.643958        71.9457 
 115   0.0000       2.719803        74.0096 
 116   0.0000       2.745697        74.7142 
 117   0.0000       2.755863        74.9909 
 118   0.0000       2.783918        75.7542 
 119   0.0000       2.795665        76.0739 
 120   0.0000       2.857623        77.7599 
 121   0.0000       2.871770        78.1448 
 122   0.0000       2.913640        79.2842 
 123   0.0000       2.993460        81.4562 
 124   0.0000       3.030389        82.4611 
 125   0.0000       3.067511        83.4712 
 126   0.0000       3.074703        83.6669 
 127   0.0000       3.140574        85.4594 
 128   0.0000       3.152552        85.7853 
 129   0.0000       3.353340        91.2490 
 130   0.0000       3.414939        92.9252 
 131   0.0000       3.478932        94.6665 
 132   0.0000       3.786338       103.0315 

                    ********************************
                    * MULLIKEN POPULATION ANALYSIS *
                    ********************************

--------------------------------------------
MULLIKEN ATOMIC CHARGES AND SPIN POPULATIONS
--------------------------------------------
   0 O :   -0.253274    0.885018
   1 O :   -0.285102    0.113171
   2 C :    0.022551   -0.009626
   3 C :    0.062938    0.009812
   4 C :    0.029210   -0.018776
   5 C :   -0.121265    0.036949
   6 C :    0.081159   -0.000508
   7 H :    0.154332   -0.021965
   8 H :    0.054417    0.003566
   9 H :    0.043829    0.003003
  10 H :    0.038469    0.001055
  11 H :    0.031168   -0.001854
  12 H :    0.066634    0.000003
  13 H :    0.074933    0.000152
Sum of atomic charges         :    0.0000000
Sum of atomic spin populations:    1.0000000

-----------------------------------------------------
MULLIKEN REDUCED ORBITAL CHARGES AND SPIN POPULATIONS
-----------------------------------------------------
CHARGE
  0 O s       :     3.862302  s :     3.862302
      pz      :     1.771310  p :     4.383601
      px      :     1.252868
      py      :     1.359422
      dz2     :     0.001042  d :     0.007371
      dxz     :     0.000417
      dyz     :     0.001376
      dx2y2   :     0.003787
      dxy     :     0.000749
  1 O s       :     3.869716  s :     3.869716
      pz      :     1.345940  p :     4.393327
      px      :     1.592497
      py      :     1.454890
      dz2     :     0.006086  d :     0.022059
      dxz     :     0.003194
      dyz     :     0.005592
      dx2y2   :     0.003260
      dxy     :     0.003926
  2 C s       :     3.191274  s :     3.191274
      pz      :     0.770176  p :     2.712439
      px      :     0.989388
      py      :     0.952875
      dz2     :     0.021975  d :     0.073736
      dxz     :     0.016597
      dyz     :     0.018682
      dx2y2   :     0.007324
      dxy     :     0.009157
  3 C s       :     3.176587  s :     3.176587
      pz      :     0.957048  p :     2.687848
      px      :     0.920768
      py      :     0.810032
      dz2     :     0.008560  d :     0.072627
      dxz     :     0.011892
      dyz     :     0.013596
      dx2y2   :     0.018737
      dxy     :     0.019843
  4 C s       :     3.154460  s :     3.154460
      pz      :     0.978169  p :     2.782226
      px      :     0.842103
      py      :     0.961953
      dz2     :     0.006154  d :     0.034104
      dxz     :     0.007991
      dyz     :     0.004815
      dx2y2   :     0.007419
      dxy     :     0.007725
  5 C s       :     3.220681  s :     3.220681
      pz      :     0.977323  p :     2.865126
      px      :     0.955617
      py      :     0.932186
      dz2     :     0.007895  d :     0.035458
      dxz     :     0.006266
      dyz     :     0.005125
      dx2y2   :     0.007321
      dxy     :     0.008851
  6 C s       :     2.953890  s :     2.953890
      pz      :     0.975636  p :     2.930386
      px      :     0.935747
      py      :     1.019003
      dz2     :     0.007677  d :     0.034565
      dxz     :     0.007207
      dyz     :     0.005499
      dx2y2   :     0.007113
      dxy     :     0.007069
  7 H s       :     0.777828  s :     0.777828
      pz      :     0.020809  p :     0.067840
      px      :     0.013905
      py      :     0.033126
  8 H s       :     0.923445  s :     0.923445
      pz      :     0.002442  p :     0.022138
      px      :     0.014589
      py      :     0.005108
  9 H s       :     0.933860  s :     0.933860
      pz      :     0.007192  p :     0.022310
      px      :     0.003162
      py      :     0.011956
 10 H s       :     0.937524  s :     0.937524
      pz      :     0.007700  p :     0.024007
      px      :     0.011580
      py      :     0.004726
 11 H s       :     0.943933  s :     0.943933
      pz      :     0.005026  p :     0.024899
      px      :     0.009703
      py      :     0.010170
 12 H s       :     0.909961  s :     0.909961
      pz      :     0.013043  p :     0.023405
      px      :     0.004590
      py      :     0.005771
 13 H s       :     0.901880  s :     0.901880
      pz      :     0.004352  p :     0.023187
      px      :     0.005804
      py      :     0.013032

SPIN
  0 O s       :     0.011755  s :     0.011755
      pz      :     0.144029  p :     0.872948
      px      :     0.710201
      py      :     0.018718
      dz2     :     0.000077  d :     0.000314
      dxz     :     0.000114
      dyz     :     0.000034
      dx2y2   :    -0.000190
      dxy     :     0.000280
  1 O s       :     0.014563  s :     0.014563
      pz      :     0.023862  p :     0.097876
      px      :     0.063998
      py      :     0.010016
      dz2     :    -0.000166  d :     0.000732
      dxz     :     0.000473
      dyz     :     0.000023
      dx2y2   :     0.000195
      dxy     :     0.000207
  2 C s       :    -0.001964  s :    -0.001964
      pz      :    -0.005206  p :    -0.008644
      px      :    -0.002124
      py      :    -0.001313
      dz2     :     0.000104  d :     0.000982
      dxz     :     0.000726
      dyz     :    -0.000011
      dx2y2   :     0.000034
      dxy     :     0.000128
  3 C s       :     0.000753  s :     0.000753
      pz      :     0.004377  p :     0.008128
      px      :     0.001246
      py      :     0.002505
      dz2     :     0.000044  d :     0.000931
      dxz     :     0.000000
      dyz     :    -0.000030
      dx2y2   :     0.001053
      dxy     :    -0.000136
  4 C s       :    -0.003133  s :    -0.003133
      pz      :    -0.009592  p :    -0.016030
      px      :     0.002024
      py      :    -0.008462
      dz2     :     0.000109  d :     0.000386
      dxz     :     0.000078
      dyz     :     0.000032
      dx2y2   :     0.000101
      dxy     :     0.000067
  5 C s       :     0.005229  s :     0.005229
      pz      :     0.015520  p :     0.031882
      px      :     0.004351
      py      :     0.012011
      dz2     :    -0.000061  d :    -0.000162
      dxz     :    -0.000024
      dyz     :    -0.000054
      dx2y2   :    -0.000039
      dxy     :     0.000015
  6 C s       :    -0.000584  s :    -0.000584
      pz      :     0.000155  p :    -0.000012
      px      :    -0.000815
      py      :     0.000648
      dz2     :    -0.000005  d :     0.000089
      dxz     :     0.000037
      dyz     :     0.000006
      dx2y2   :     0.000002
      dxy     :     0.000049
  7 H s       :    -0.027465  s :    -0.027465
      pz      :     0.000497  p :     0.005500
      px      :     0.004796
      py      :     0.000207
  8 H s       :     0.003639  s :     0.003639
      pz      :    -0.000031  p :    -0.000073
      px      :    -0.000037
      py      :    -0.000006
  9 H s       :     0.003024  s :     0.003024
      pz      :    -0.000019  p :    -0.000020
      px      :    -0.000011
      py      :     0.000010
 10 H s       :     0.001135  s :     0.001135
      pz      :    -0.000021  p :    -0.000079
      px      :    -0.000008
      py      :    -0.000051
 11 H s       :    -0.002084  s :    -0.002084
      pz      :     0.000118  p :     0.000231
      px      :     0.000047
      py      :     0.000066
 12 H s       :    -0.000024  s :    -0.000024
      pz      :    -0.000003  p :     0.000027
      px      :     0.000023
      py      :     0.000007
 13 H s       :     0.000160  s :     0.000160
      pz      :    -0.000002  p :    -0.000008
      px      :    -0.000005
      py      :    -0.000002


                     *******************************
                     * LOEWDIN POPULATION ANALYSIS *
                     *******************************

-------------------------------------------
LOEWDIN ATOMIC CHARGES AND SPIN POPULATIONS
-------------------------------------------
   0 O :   -0.165224    0.841564
   1 O :   -0.086090    0.129671
   2 C :    0.058438   -0.004563
   3 C :    0.044047    0.009239
   4 C :   -0.051474   -0.012196
   5 C :    0.000585    0.028200
   6 C :   -0.045620    0.000745
   7 H :    0.038113    0.002914
   8 H :    0.026656    0.001965
   9 H :    0.024460    0.001868
  10 H :    0.034832    0.000292
  11 H :    0.025627    0.000044
  12 H :    0.044972    0.000176
  13 H :    0.050680    0.000080

----------------------------------------------------
LOEWDIN REDUCED ORBITAL CHARGES AND SPIN POPULATIONS
----------------------------------------------------
CHARGE
  0 O s       :     3.685875  s :     3.685875
      pz      :     1.752862  p :     4.466053
      px      :     1.253430
      py      :     1.459761
      dz2     :     0.002061  d :     0.013296
      dxz     :     0.000824
      dyz     :     0.001863
      dx2y2   :     0.007817
      dxy     :     0.000732
  1 O s       :     3.549767  s :     3.549767
      pz      :     1.406048  p :     4.499152
      px      :     1.579614
      py      :     1.513490
      dz2     :     0.009882  d :     0.037172
      dxz     :     0.005068
      dyz     :     0.010414
      dx2y2   :     0.005081
      dxy     :     0.006727
  2 C s       :     2.855749  s :     2.855749
      pz      :     0.864162  p :     2.922960
      px      :     1.050877
      py      :     1.007921
      dz2     :     0.044914  d :     0.162853
      dxz     :     0.039242
      dyz     :     0.041874
      dx2y2   :     0.015146
      dxy     :     0.021677
  3 C s       :     2.859211  s :     2.859211
      pz      :     1.018219  p :     2.935866
      px      :     0.990175
      py      :     0.927472
      dz2     :     0.018575  d :     0.160876
      dxz     :     0.027104
      dyz     :     0.029834
      dx2y2   :     0.043769
      dxy     :     0.041594
  4 C s       :     2.879843  s :     2.879843
      pz      :     1.030862  p :     3.082864
      px      :     1.017808
      py      :     1.034194
      dz2     :     0.013441  d :     0.088767
      dxz     :     0.020952
      dyz     :     0.013911
      dx2y2   :     0.020503
      dxy     :     0.019961
  5 C s       :     2.879289  s :     2.879289
      pz      :     1.002905  p :     3.032506
      px      :     1.002030
      py      :     1.027571
      dz2     :     0.016193  d :     0.087620
      dxz     :     0.015623
      dyz     :     0.014635
      dx2y2   :     0.019349
      dxy     :     0.021820
  6 C s       :     2.843477  s :     2.843477
      pz      :     1.038931  p :     3.113122
      px      :     1.017318
      py      :     1.056873
      dz2     :     0.020018  d :     0.089021
      dxz     :     0.018940
      dyz     :     0.013684
      dx2y2   :     0.018735
      dxy     :     0.017645
  7 H s       :     0.777776  s :     0.777776
      pz      :     0.053830  p :     0.184111
      px      :     0.035598
      py      :     0.094683
  8 H s       :     0.902609  s :     0.902609
      pz      :     0.010747  p :     0.070735
      px      :     0.042853
      py      :     0.017135
  9 H s       :     0.905972  s :     0.905972
      pz      :     0.022188  p :     0.069568
      px      :     0.012758
      py      :     0.034623
 10 H s       :     0.894979  s :     0.894979
      pz      :     0.021990  p :     0.070189
      px      :     0.034127
      py      :     0.014071
 11 H s       :     0.899390  s :     0.899390
      pz      :     0.016401  p :     0.074983
      px      :     0.029929
      py      :     0.028654
 12 H s       :     0.887557  s :     0.887557
      pz      :     0.037561  p :     0.067471
      px      :     0.013503
      py      :     0.016407
 13 H s       :     0.881756  s :     0.881756
      pz      :     0.012541  p :     0.067564
      px      :     0.017727
      py      :     0.037296

SPIN
  0 O s       :     0.010673  s :     0.010673
      pz      :     0.137992  p :     0.830776
      px      :     0.681567
      py      :     0.011217
      dz2     :    -0.000073  d :     0.000116
      dxz     :     0.000161
      dyz     :    -0.000074
      dx2y2   :     0.000019
      dxy     :     0.000083
  1 O s       :     0.020170  s :     0.020170
      pz      :     0.025989  p :     0.108503
      px      :     0.074022
      py      :     0.008492
      dz2     :    -0.000157  d :     0.000998
      dxz     :     0.000564
      dyz     :     0.000036
      dx2y2   :     0.000269
      dxy     :     0.000286
  2 C s       :    -0.000953  s :    -0.000953
      pz      :    -0.003266  p :    -0.006030
      px      :    -0.000946
      py      :    -0.001818
      dz2     :     0.000507  d :     0.002420
      dxz     :     0.001631
      dyz     :    -0.000074
      dx2y2   :     0.000117
      dxy     :     0.000239
  3 C s       :     0.000310  s :     0.000310
      pz      :     0.004076  p :     0.007323
      px      :     0.000875
      py      :     0.002372
      dz2     :    -0.000014  d :     0.001606
      dxz     :     0.000015
      dyz     :     0.000029
      dx2y2   :     0.001801
      dxy     :    -0.000225
  4 C s       :    -0.000096  s :    -0.000096
      pz      :    -0.007167  p :    -0.013096
      px      :     0.001066
      py      :    -0.006995
      dz2     :     0.000232  d :     0.000997
      dxz     :     0.000162
      dyz     :     0.000055
      dx2y2   :     0.000386
      dxy     :     0.000161
  5 C s       :     0.001090  s :     0.001090
      pz      :     0.014029  p :     0.027477
      px      :     0.004145
      py      :     0.009302
      dz2     :    -0.000170  d :    -0.000367
      dxz     :    -0.000034
      dyz     :    -0.000071
      dx2y2   :    -0.000092
      dxy     :     0.000001
  6 C s       :     0.000074  s :     0.000074
      pz      :     0.000133  p :     0.000447
      px      :    -0.000164
      py      :     0.000478
      dz2     :     0.000009  d :     0.000224
      dxz     :     0.000100
      dyz     :     0.000014
      dx2y2   :     0.000001
      dxy     :     0.000100
  7 H s       :    -0.018736  s :    -0.018736
      pz      :     0.003110  p :     0.021650
      px      :     0.015440
      py      :     0.003100
  8 H s       :     0.002203  s :     0.002203
      pz      :    -0.000111  p :    -0.000238
      px      :    -0.000048
      py      :    -0.000079
  9 H s       :     0.001798  s :     0.001798
      pz      :     0.000119  p :     0.000069
      px      :     0.000013
      py      :    -0.000062
 10 H s       :     0.000604  s :     0.000604
      pz      :    -0.000149  p :    -0.000313
      px      :     0.000008
      py      :    -0.000172
 11 H s       :    -0.000867  s :    -0.000867
      pz      :     0.000422  p :     0.000911
      px      :     0.000184
      py      :     0.000306
 12 H s       :     0.000090  s :     0.000090
      pz      :     0.000003  p :     0.000086
      px      :     0.000059
      py      :     0.000025
 13 H s       :     0.000094  s :     0.000094
      pz      :     0.000004  p :    -0.000014
      px      :    -0.000017
      py      :    -0.000002


                      *****************************
                      * MAYER POPULATION ANALYSIS *
                      *****************************

  NA   - Mulliken gross atomic population
  ZA   - Total nuclear charge
  QA   - Mulliken gross atomic charge
  VA   - Mayer's total valence
  BVA  - Mayer's bonded valence
  FA   - Mayer's free valence

  ATOM       NA         ZA         QA         VA         BVA        FA
  0 O      8.2533     8.0000    -0.2533     2.0091     1.2716     0.7375
  1 O      8.2851     8.0000    -0.2851     2.0697     2.0544     0.0153
  2 C      5.9774     6.0000     0.0226     3.9761     3.9761     0.0001
  3 C      5.9371     6.0000     0.0629     3.9125     3.9123     0.0001
  4 C      5.9708     6.0000     0.0292     3.7937     3.7934     0.0003
  5 C      6.1213     6.0000    -0.1213     3.9735     3.9726     0.0009
  6 C      5.9188     6.0000     0.0812     3.8282     3.8282     0.0000
  7 H      0.8457     1.0000     0.1543     1.0178     1.0166     0.0012
  8 H      0.9456     1.0000     0.0544     1.0125     1.0125     0.0000
  9 H      0.9562     1.0000     0.0438     0.9888     0.9887     0.0000
 10 H      0.9615     1.0000     0.0385     0.9887     0.9887     0.0000
 11 H      0.9688     1.0000     0.0312     0.9915     0.9915     0.0000
 12 H      0.9334     1.0000     0.0666     0.9788     0.9788     0.0000
 13 H      0.9251     1.0000     0.0749     0.9817     0.9817     0.0000

  Mayer bond orders larger than 0.100000
B(  0-O ,  1-O ) :   0.1748 B(  0-O ,  7-H ) :   0.9981 B(  1-O ,  2-C ) :   0.9135 
B(  1-O ,  3-C ) :   0.8982 B(  2-C ,  3-C ) :   1.0170 B(  2-C ,  6-C ) :   1.0074 
B(  2-C ,  8-H ) :   0.9594 B(  3-C ,  4-C ) :   0.9805 B(  3-C ,  9-H ) :   0.9724 
B(  4-C ,  5-C ) :   1.8293 B(  4-C , 10-H ) :   0.9949 B(  5-C ,  6-C ) :   1.0157 
B(  5-C , 11-H ) :   0.9778 B(  6-C , 12-H ) :   0.9291 B(  6-C , 13-H ) :   0.9262 



------------------
HIRSHFELD ANALYSIS
------------------

Total integrated alpha density =     26.999994591
Total integrated beta density  =     25.999994121

  ATOM     CHARGE      SPIN    
   0 O   -0.262072    0.813609
   1 O   -0.120087    0.130885
   2 C    0.054663   -0.000077
   3 C    0.042712    0.010152
   4 C   -0.048263   -0.005955
   5 C   -0.021516    0.022782
   6 C   -0.038029    0.002331
   7 H    0.125431    0.020976
   8 H    0.049385    0.001760
   9 H    0.048889    0.001601
  10 H    0.044750   -0.000291
  11 H    0.041839    0.001558
  12 H    0.037413    0.000480
  13 H    0.044897    0.000188

  TOTAL   0.000011    1.000000

-------
TIMINGS
-------

Total SCF time: 0 days 0 hours 1 min 5 sec 

Total time                  ....      65.743 sec
Sum of individual times     ....      65.587 sec  ( 99.8%)

Fock matrix formation       ....      63.737 sec  ( 96.9%)
  Split-RI-J                ....       4.010 sec  (  6.3% of F)
  Chain of spheres X        ....      43.885 sec  ( 68.9% of F)
  XC integration            ....      15.840 sec  ( 24.9% of F)
    Basis function eval.    ....       4.762 sec  ( 30.1% of XC)
    Density eval.           ....       4.414 sec  ( 27.9% of XC)
    XC-Functional eval.     ....       1.618 sec  ( 10.2% of XC)
    XC-Potential eval.      ....       4.667 sec  ( 29.5% of XC)
Diagonalization             ....       0.107 sec  (  0.2%)
Density matrix formation    ....       0.009 sec  (  0.0%)
Population analysis         ....       0.356 sec  (  0.5%)
Initial guess               ....       0.213 sec  (  0.3%)
Orbital Transformation      ....       0.000 sec  (  0.0%)
Orbital Orthonormalization  ....       0.000 sec  (  0.0%)
DIIS solution               ....       0.029 sec  (  0.0%)
Grid generation             ....       1.136 sec  (  1.7%)

Maximum memory used throughout the entire SCF-calculation: 63.5 MB


-------------------------------------------------------------------------------
                          DFT DISPERSION CORRECTION                            
                                                                               
                              DFTD3 V3.1  Rev 1                                
                          USING Becke-Johnson damping                          
-------------------------------------------------------------------------------
The PBE0 functional is recognized
Active option DFTDOPT                   ...         4   

molecular C6(AA) [au] = 1741.658082 


            DFT-D V3
 parameters
 s6 scaling factor         :     1.0000 
 a1 scaling factor         :     0.4145 
 s8 scaling factor         :     1.2177 
 a2 scaling factor         :     4.8593 
 ad hoc parameters k1-k3   :    16.0000     1.3333    -4.0000 

 Edisp/kcal,au: -6.166605579964  -0.009827110469 
 E6   /kcal   :  -3.923468980 
 E8   /kcal   :  -2.243136600 
 % E8         :  36.375548445 

-------------------------   ----------------
Dispersion correction           -0.009827110
-------------------------   ----------------


-------------------------   --------------------
FINAL SINGLE POINT ENERGY      -344.371818830278
-------------------------   --------------------

------------------------------------------------------------------------------
                         ORCA SCF GRADIENT CALCULATION
------------------------------------------------------------------------------

 ... reading COSX grid (gridx3)
Gradient of the Kohn-Sham DFT energy:
Kohn-Sham wavefunction type      ... UKS
Hartree-Fock exchange scaling    ...    0.250
Number of operators              ...    2
Number of atoms                  ...   14
Basis set dimensions             ...  133
Integral neglect threshold       ... 2.5e-11
Integral primitive cutoff        ... 2.5e-12
SHARK Integral package           ... ON

Nuc. rep. gradient       (SHARK) ... done (  0.0 sec)
HCore & Overlap gradient (SHARK) ... done (  0.1 sec)
RI-J gradient            (SHARK) ... done (  0.6 sec)
COSX-gradient                    ... done (  6.7 sec)
Exchange-correlation gradient    ... done
Dispersion correction            ... done

------------------
CARTESIAN GRADIENT
------------------

   1   O   :    0.024530393    0.000271842   -0.009939946
   2   O   :    0.008437594   -0.003404078   -0.005248836
   3   C   :   -0.003065405    0.002646013   -0.005740008
   4   C   :   -0.003872445    0.002785174    0.001276024
   5   C   :   -0.009829891   -0.000965783    0.003055908
   6   C   :    0.013786127   -0.012790078    0.006220246
   7   C   :   -0.011639213    0.000773676    0.000470019
   8   H   :    0.001748435    0.000561881   -0.002739641
   9   H   :   -0.003071026    0.000711794    0.000793825
  10   H   :   -0.003276094   -0.001216736    0.002715261
  11   H   :    0.002378794    0.000962868    0.000639701
  12   H   :   -0.017003856    0.009617575    0.007250855
  13   H   :    0.004347524   -0.000559813    0.001476235
  14   H   :   -0.003449633    0.000555924   -0.000341652

Difference to translation invariance:
           :    0.0000213034   -0.0000497406   -0.0001120089

Difference to rotation invariance:
           :   -0.0000200929   -0.0000461401    0.0001937803

Norm of the cartesian gradient     ...    0.0451237049
RMS gradient                       ...    0.0069627388
MAX gradient                       ...    0.0245303931

-------
TIMINGS
-------

Total SCF gradient time            ...       11.211 sec

One electron gradient       ....       0.097 sec  (  0.9%)
RI-J Coulomb gradient       ....       0.591 sec  (  5.3%)
COSX gradient               ....       6.651 sec  ( 59.3%)
XC gradient                 ....       3.577 sec  ( 31.9%)

Maximum memory used throughout the entire SCFGRAD-calculation: 50.3 MB

                            ***************************************
                            *     ORCA property calculations      *
                            ***************************************

                                    ---------------------
                                    Active property flags
                                    ---------------------
   (+) Dipole Moment


------------------------------------------------------------------------------
                       ORCA ELECTRIC PROPERTIES CALCULATION
------------------------------------------------------------------------------

Dipole Moment Calculation                       ... on
Quadrupole Moment Calculation                   ... off
Polarizability Calculation                      ... off
GBWName                                         ... 11_2_orca.gbw
Electron density                                ... 11_2_orca.scfp
The origin for moment calculation is the CENTER OF MASS  = (-0.301034, -0.127345  0.451805)

-------------
DIPOLE MOMENT
-------------
                                X             Y             Z
Electronic contribution:     -0.73137       0.13600       1.93914
Nuclear contribution   :      1.37027       0.77558      -2.64417
                        -----------------------------------------
Total Dipole Moment    :      0.63890       0.91158      -0.70503
                        -----------------------------------------
Magnitude (a.u.)       :      1.31766
Magnitude (Debye)      :      3.34924



--------------------
Rotational spectrum 
--------------------
 
Rotational constants in cm-1:     0.191098     0.069012     0.059467 
Rotational constants in MHz :  5728.981520  2068.931122  1782.767987 

 Dipole components along the rotational axes: 
x,y,z [a.u.] :    -0.926120     0.249556    -0.903474 
x,y,z [Debye]:    -2.354009     0.634321    -2.296448 

 

Timings for individual modules:

Sum of individual times         ...       77.163 sec (=   1.286 min)
GTO integral calculation        ...        0.158 sec (=   0.003 min)   0.2 %
SCF iterations                  ...       65.766 sec (=   1.096 min)  85.2 %
SCF Gradient evaluation         ...       11.240 sec (=   0.187 min)  14.6 %
                             ****ORCA TERMINATED NORMALLY****
TOTAL RUN TIME: 0 days 0 hours 1 minutes 17 seconds 316 msec
