
                                 *****************
                                 * O   R   C   A *
                                 *****************

                                            #,                                       
                                            ###                                      
                                            ####                                     
                                            #####                                    
                                            ######                                   
                                           ########,                                 
                                     ,,################,,,,,                         
                               ,,#################################,,                 
                          ,,##########################################,,             
                       ,#########################################, ''#####,          
                    ,#############################################,,   '####,        
                  ,##################################################,,,,####,       
                ,###########''''           ''''###############################       
              ,#####''   ,,,,##########,,,,          '''####'''          '####       
            ,##' ,,,,###########################,,,                        '##       
           ' ,,###''''                  '''############,,,                           
         ,,##''                                '''############,,,,        ,,,,,,###''
      ,#''                                            '''#######################'''  
     '                                                          ''''####''''         
             ,#######,   #######,   ,#######,      ##                                
            ,#'     '#,  ##    ##  ,#'     '#,    #''#        ######   ,####,        
            ##       ##  ##   ,#'  ##            #'  '#       #        #'  '#        
            ##       ##  #######   ##           ,######,      #####,   #    #        
            '#,     ,#'  ##    ##  '#,     ,#' ,#      #,         ##   #,  ,#        
             '#######'   ##     ##  '#######'  #'      '#     #####' # '####'        



                  #######################################################
                  #                        -***-                        #
                  #          Department of theory and spectroscopy      #
                  #    Directorship and core code : Frank Neese         #
                  #        Max Planck Institute fuer Kohlenforschung    #
                  #                Kaiser Wilhelm Platz 1               #
                  #                 D-45470 Muelheim/Ruhr               #
                  #                      Germany                        #
                  #                                                     #
                  #                  All rights reserved                #
                  #                        -***-                        #
                  #######################################################


                         Program Version 5.0.4 -  RELEASE  -


 With contributions from (in alphabetic order):
   Daniel Aravena         : Magnetic Suceptibility
   Michael Atanasov       : Ab Initio Ligand Field Theory (pilot matlab implementation)
   Alexander A. Auer      : GIAO ZORA, VPT2 properties, NMR spectrum
   Ute Becker             : Parallelization
   Giovanni Bistoni       : ED, misc. LED, open-shell LED, HFLD
   Martin Brehm           : Molecular dynamics
   Dmytro Bykov           : SCF Hessian
   Vijay G. Chilkuri      : MRCI spin determinant printing, contributions to CSF-ICE
   Dipayan Datta          : RHF DLPNO-CCSD density
   Achintya Kumar Dutta   : EOM-CC, STEOM-CC
   Dmitry Ganyushin       : Spin-Orbit,Spin-Spin,Magnetic field MRCI
   Miquel Garcia          : C-PCM and meta-GGA Hessian, CC/C-PCM, Gaussian charge scheme
   Yang Guo               : DLPNO-NEVPT2, F12-NEVPT2, CIM, IAO-localization
   Andreas Hansen         : Spin unrestricted coupled pair/coupled cluster methods
   Benjamin Helmich-Paris : MC-RPA, TRAH-SCF, COSX integrals
   Lee Huntington         : MR-EOM, pCC
   Robert Izsak           : Overlap fitted RIJCOSX, COSX-SCS-MP3, EOM
   Marcus Kettner         : VPT2
   Christian Kollmar      : KDIIS, OOCD, Brueckner-CCSD(T), CCSD density, CASPT2, CASPT2-K
   Simone Kossmann        : Meta GGA functionals, TD-DFT gradient, OOMP2, MP2 Hessian
   Martin Krupicka        : Initial AUTO-CI
   Lucas Lang             : DCDCAS
   Marvin Lechner         : AUTO-CI (C++ implementation), FIC-MRCC
   Dagmar Lenk            : GEPOL surface, SMD
   Dimitrios Liakos       : Extrapolation schemes; Compound Job, initial MDCI parallelization
   Dimitrios Manganas     : Further ROCIS development; embedding schemes
   Dimitrios Pantazis     : SARC Basis sets
   Anastasios Papadopoulos: AUTO-CI, single reference methods and gradients
   Taras Petrenko         : DFT Hessian,TD-DFT gradient, ASA, ECA, R-Raman, ABS, FL, XAS/XES, NRVS
   Peter Pinski           : DLPNO-MP2, DLPNO-MP2 Gradient
   Christoph Reimann      : Effective Core Potentials
   Marius Retegan         : Local ZFS, SOC
   Christoph Riplinger    : Optimizer, TS searches, QM/MM, DLPNO-CCSD(T), (RO)-DLPNO pert. Triples
   Tobias Risthaus        : Range-separated hybrids, TD-DFT gradient, RPA, STAB
   Michael Roemelt        : Original ROCIS implementation
   Masaaki Saitow         : Open-shell DLPNO-CCSD energy and density
   Barbara Sandhoefer     : DKH picture change effects
   Avijit Sen             : IP-ROCIS
   Kantharuban Sivalingam : CASSCF convergence, NEVPT2, FIC-MRCI
   Bernardo de Souza      : ESD, SOC TD-DFT
   Georgi Stoychev        : AutoAux, RI-MP2 NMR, DLPNO-MP2 response
   Willem Van den Heuvel  : Paramagnetic NMR
   Boris Wezisla          : Elementary symmetry handling
   Frank Wennmohs         : Technical directorship


 We gratefully acknowledge several colleagues who have allowed us to
 interface, adapt or use parts of their codes:
   Stefan Grimme, W. Hujo, H. Kruse, P. Pracht,  : VdW corrections, initial TS optimization,
                  C. Bannwarth, S. Ehlert          DFT functionals, gCP, sTDA/sTD-DF
   Ed Valeev, F. Pavosevic, A. Kumar             : LibInt (2-el integral package), F12 methods
   Garnet Chan, S. Sharma, J. Yang, R. Olivares  : DMRG
   Ulf Ekstrom                                   : XCFun DFT Library
   Mihaly Kallay                                 : mrcc  (arbitrary order and MRCC methods)
   Jiri Pittner, Ondrej Demel                    : Mk-CCSD
   Frank Weinhold                                : gennbo (NPA and NBO analysis)
   Christopher J. Cramer and Donald G. Truhlar   : smd solvation model
   Lars Goerigk                                  : TD-DFT with DH, B97 family of functionals
   V. Asgeirsson, H. Jonsson                     : NEB implementation
   FAccTs GmbH                                   : IRC, NEB, NEB-TS, DLPNO-Multilevel, CI-OPT
                                                   MM, QMMM, 2- and 3-layer-ONIOM, Crystal-QMMM,
                                                   LR-CPCM, SF, NACMEs, symmetry and pop. for TD-DFT,
                                                   nearIR, NL-DFT gradient (VV10), updates on ESD,
                                                   ML-optimized integration grids
   S Lehtola, MJT Oliveira, MAL Marques          : LibXC Library
   Liviu Ungur et al                             : ANISO software


 Your calculation uses the libint2 library for the computation of 2-el integrals
 For citations please refer to: http://libint.valeyev.net

 Your ORCA version has been built with support for libXC version: 5.1.0
 For citations please refer to: https://tddft.org/programs/libxc/

 This ORCA versions uses:
   CBLAS   interface :  Fast vector & matrix operations
   LAPACKE interface :  Fast linear algebra routines
   SCALAPACK package :  Parallel linear algebra routines
   Shared memory     :  Shared parallel matrices
   BLAS/LAPACK       :  OpenBLAS 0.3.15  USE64BITINT DYNAMIC_ARCH NO_AFFINITY SkylakeX SINGLE_THREADED
        Core in use  :  SkylakeX
   Copyright (c) 2011-2014, The OpenBLAS Project


Your calculation utilizes the atom-pairwise dispersion correction
with the Becke-Johnson damping scheme (D3BJ)
Cite in your paper:
S.Grimme, S.Ehrlich, L.Goerigk, J Comput Chem, (2011), 32, 1456–1465 
S.Grimme, J.Antony, S.Ehrlich and H.Krieg, J.Chem.Phys., 132, (2010), 154104 
   

================================================================================

----- Orbital basis set information -----
Your calculation utilizes the basis: def2-SVP
   F. Weigend and R. Ahlrichs, Phys. Chem. Chem. Phys. 7, 3297 (2005).

----- AuxJ basis set information -----
Your calculation utilizes the auxiliary basis: def2/J
   F. Weigend, Phys. Chem. Chem. Phys. 8, 1057 (2006).

================================================================================
                                        WARNINGS
                       Please study these warnings very carefully!
================================================================================


WARNING: your system is open-shell and RHF/RKS was chosen
  ===> : WILL SWITCH to UHF/UKS


INFO   : the flag for use of the SHARK integral package has been found!

================================================================================
                                       INPUT FILE
================================================================================
NAME = 15_2_orca.inp
|  1> ! EnGrad PBE0 RIJCOSX D3BJ def2-SVP def2/J 
|  2> %output 
|  3> xyzfile=True 
|  4> end 
|  5> %scf 
|  6> maxiter 250 
|  7> end
|  8> %output
|  9> Print[P_Hirshfeld] = 1
| 10> end
| 11> % maxcore
| 12> 4000
| 13> *xyz 0 2
| 14> O   -2.48974166  -0.06949062   1.57901344 
| 15> O   -0.60144371  -0.28400218   0.89455256 
| 16> C   -0.73340276   0.21567667  -0.44030539 
| 17> C    0.14369100   0.90134138   0.52078717 
| 18> C    1.52572384   0.41703943   0.26941235 
| 19> C    1.45513853  -0.60036402  -0.60430530 
| 20> C    0.11247697  -0.66431856  -1.31798963 
| 21> H   -2.08452325   0.26993555   2.39115406 
| 22> H   -1.73673696   0.57529006  -0.68827374 
| 23> H   -0.14944758   1.79739401   1.07966944 
| 24> H    2.41464351   0.71825383   0.83165064 
| 25> H    2.21399446  -1.32987266  -0.77219528 
| 26> H    0.26710097  -0.28007440  -2.34350210 
| 27> H   -0.33748538  -1.66658233  -1.39887941 
| 28> *
| 29> 
| 30>                          ****END OF INPUT****
================================================================================

                     *******************************
                     * Energy+Gradient Calculation *
                     *******************************

---------------------------------
CARTESIAN COORDINATES (ANGSTROEM)
---------------------------------
  O     -2.489742   -0.069491    1.579013
  O     -0.601444   -0.284002    0.894553
  C     -0.733403    0.215677   -0.440305
  C      0.143691    0.901341    0.520787
  C      1.525724    0.417039    0.269412
  C      1.455139   -0.600364   -0.604305
  C      0.112477   -0.664319   -1.317990
  H     -2.084523    0.269936    2.391154
  H     -1.736737    0.575290   -0.688274
  H     -0.149448    1.797394    1.079669
  H      2.414644    0.718254    0.831651
  H      2.213994   -1.329873   -0.772195
  H      0.267101   -0.280074   -2.343502
  H     -0.337485   -1.666582   -1.398879

----------------------------
CARTESIAN COORDINATES (A.U.)
----------------------------
  NO LB      ZA    FRAG     MASS         X           Y           Z
   0 O     8.0000    0    15.999   -4.704930   -0.131318    2.983903
   1 O     8.0000    0    15.999   -1.136564   -0.536686    1.690459
   2 C     6.0000    0    12.011   -1.385930    0.407570   -0.832057
   3 C     6.0000    0    12.011    0.271537    1.703288    0.984145
   4 C     6.0000    0    12.011    2.883200    0.788090    0.509116
   5 C     6.0000    0    12.011    2.749813   -1.134524   -1.141972
   6 C     6.0000    0    12.011    0.212551   -1.255380   -2.490639
   7 H     1.0000    0     1.008   -3.939178    0.510104    4.518626
   8 H     1.0000    0     1.008   -3.281957    1.087141   -1.300649
   9 H     1.0000    0     1.008   -0.282415    3.396582    2.040280
  10 H     1.0000    0     1.008    4.563015    1.357303    1.571592
  11 H     1.0000    0     1.008    4.183843   -2.513095   -1.459238
  12 H     1.0000    0     1.008    0.504748   -0.529264   -4.428577
  13 H     1.0000    0     1.008   -0.637755   -3.149384   -2.643499

--------------------------------
INTERNAL COORDINATES (ANGSTROEM)
--------------------------------
 O      0   0   0     0.000000000000     0.00000000     0.00000000
 O      1   0   0     2.019943329304     0.00000000     0.00000000
 C      2   1   0     1.431411153615   101.11294517     0.00000000
 C      2   1   3     1.449125825469   118.76489210    63.34302150
 C      4   2   1     1.485850749484   104.79091085   171.66377630
 C      5   4   2     1.342935068416   107.94557390    52.68686115
 C      3   2   1     1.503407379120   106.75140771   218.98179943
 H      1   2   3     0.969012111038    86.00158544   223.39339633
 H      3   2   1     1.094298683979   114.23982251     1.65026505
 H      4   2   1     1.095988108756   113.55935580    29.11673621
 H      5   4   2     1.094084178307   125.38265902   242.61367541
 H      6   5   4     1.065941942000   125.69975754   198.63176228
 H      7   3   2     1.105996375218   114.62122718   191.51057453
 H      7   3   2     1.101608795163   110.21834325    69.74520272

---------------------------
INTERNAL COORDINATES (A.U.)
---------------------------
 O      0   0   0     0.000000000000     0.00000000     0.00000000
 O      1   0   0     3.817139698425     0.00000000     0.00000000
 C      2   1   0     2.704975065372   101.11294517     0.00000000
 C      2   1   3     2.738450943730   118.76489210    63.34302150
 C      4   2   1     2.807850992406   104.79091085   171.66377630
 C      5   4   2     2.537779494945   107.94557390    52.68686115
 C      3   2   1     2.841028214253   106.75140771   218.98179943
 H      1   2   3     1.831167510314    86.00158544   223.39339633
 H      3   2   1     2.067924821431   114.23982251     1.65026505
 H      4   2   1     2.071117371583   113.55935580    29.11673621
 H      5   4   2     2.067519464457   125.38265902   242.61367541
 H      6   5   4     2.014338345041   125.69975754   198.63176228
 H      7   3   2     2.090030254272   114.62122718   191.51057453
 H      7   3   2     2.081738929577   110.21834325    69.74520272

---------------------
BASIS SET INFORMATION
---------------------
There are 3 groups of distinct atoms

 Group   1 Type O   : 7s4p1d contracted to 3s2p1d pattern {511/31/1}
 Group   2 Type C   : 7s4p1d contracted to 3s2p1d pattern {511/31/1}
 Group   3 Type H   : 4s1p contracted to 2s1p pattern {31/1}

Atom   0O    basis set group =>   1
Atom   1O    basis set group =>   1
Atom   2C    basis set group =>   2
Atom   3C    basis set group =>   2
Atom   4C    basis set group =>   2
Atom   5C    basis set group =>   2
Atom   6C    basis set group =>   2
Atom   7H    basis set group =>   3
Atom   8H    basis set group =>   3
Atom   9H    basis set group =>   3
Atom  10H    basis set group =>   3
Atom  11H    basis set group =>   3
Atom  12H    basis set group =>   3
Atom  13H    basis set group =>   3
---------------------------------
AUXILIARY/J BASIS SET INFORMATION
---------------------------------
There are 3 groups of distinct atoms

 Group   1 Type O   : 12s5p4d2f1g contracted to 6s4p3d1f1g pattern {711111/2111/211/2/1}
 Group   2 Type C   : 12s5p4d2f1g contracted to 6s4p3d1f1g pattern {711111/2111/211/2/1}
 Group   3 Type H   : 5s2p1d contracted to 3s1p1d pattern {311/2/1}

Atom   0O    basis set group =>   1
Atom   1O    basis set group =>   1
Atom   2C    basis set group =>   2
Atom   3C    basis set group =>   2
Atom   4C    basis set group =>   2
Atom   5C    basis set group =>   2
Atom   6C    basis set group =>   2
Atom   7H    basis set group =>   3
Atom   8H    basis set group =>   3
Atom   9H    basis set group =>   3
Atom  10H    basis set group =>   3
Atom  11H    basis set group =>   3
Atom  12H    basis set group =>   3
Atom  13H    basis set group =>   3
------------------------------------------------------------------------------
                           ORCA GTO INTEGRAL CALCULATION
                           -- RI-GTO INTEGRALS CHOSEN --
------------------------------------------------------------------------------
------------------------------------------------------------------------------
                   ___                                                        
                  /   \      - P O W E R E D   B Y -                         
                 /     \                                                     
                 |  |  |   _    _      __       _____    __    __             
                 |  |  |  | |  | |    /  \     |  _  \  |  |  /  |          
                  \  \/   | |  | |   /    \    | | | |  |  | /  /          
                 / \  \   | |__| |  /  /\  \   | |_| |  |  |/  /          
                |  |  |   |  __  | /  /__\  \  |    /   |      \           
                |  |  |   | |  | | |   __   |  |    \   |  |\   \          
                \     /   | |  | | |  |  |  |  | |\  \  |  | \   \       
                 \___/    |_|  |_| |__|  |__|  |_| \__\ |__|  \__/        
                                                                              
                      - O R C A' S   B I G   F R I E N D -                    
                                      &                                       
                       - I N T E G R A L  F E E D E R -                       
                                                                              
 v1 FN, 2020, v2 2021                                                         
------------------------------------------------------------------------------


Reading SHARK input file 15_2_orca.SHARKINP.tmp ... ok
----------------------
SHARK INTEGRAL PACKAGE
----------------------

Number of atoms                             ...     14
Number of basis functions                   ...    133
Number of shells                            ...     63
Maximum angular momentum                    ...      2
Integral batch strategy                     ... SHARK/LIBINT Hybrid
RI-J (if used) integral strategy            ... SPLIT-RIJ (Revised 2003 algorithm where possible)
Printlevel                                  ...      1
Contraction scheme used                     ... SEGMENTED contraction
Coulomb Range Separation                    ... NOT USED
Exchange Range Separation                   ... NOT USED
Finite Nucleus Model                        ... NOT USED
Auxiliary Coulomb fitting basis             ... AVAILABLE
   # of basis functions in Aux-J            ...    420
   # of shells in Aux-J                     ...    140
   Maximum angular momentum in Aux-J        ...      4
Auxiliary J/K fitting basis                 ... NOT available
Auxiliary Correlation fitting basis         ... NOT available
Auxiliary 'external' fitting basis          ... NOT available
Integral threshold                          ...     2.500000e-11
Primitive cut-off                           ...     2.500000e-12
Primitive pair pre-selection threshold      ...     2.500000e-12

Calculating pre-screening integrals         ... done (  0.0 sec) Dimension = 63
Organizing shell pair data                  ... done (  0.0 sec)
Shell pair information
Total number of shell pairs                 ...      2016
Shell pairs after pre-screening             ...      1947
Total number of primitive shell pairs       ...      7252
Primitive shell pairs kept                  ...      5341
          la=0 lb=0:    606 shell pairs
          la=1 lb=0:    709 shell pairs
          la=1 lb=1:    225 shell pairs
          la=2 lb=0:    237 shell pairs
          la=2 lb=1:    143 shell pairs
          la=2 lb=2:     27 shell pairs

Calculating one electron integrals          ... done (  0.0 sec)
Calculating RI/J V-Matrix + Cholesky decomp.... done (  0.0 sec)
Calculating Nuclear repulsion               ... done (  0.0 sec) ENN=    301.040830123239 Eh

SHARK setup successfully completed in   0.1 seconds

Maximum memory used throughout the entire GTOINT-calculation: 16.8 MB
-------------------------------------------------------------------------------
                                 ORCA SCF
-------------------------------------------------------------------------------

------------
SCF SETTINGS
------------
Hamiltonian:
 Density Functional     Method          .... DFT(GTOs)
 Exchange Functional    Exchange        .... PBE
   PBE kappa parameter   XKappa         ....  0.804000
   PBE mue parameter    XMuePBE         ....  0.219520
 Correlation Functional Correlation     .... PBE
   PBE beta parameter  CBetaPBE         ....  0.066725
 LDA part of GGA corr.  LDAOpt          .... PW91-LDA
 Gradients option       PostSCFGGA      .... off
 Hybrid DFT is turned on
   Fraction HF Exchange ScalHFX         ....  0.250000
   Scaling of DF-GGA-X  ScalDFX         ....  0.750000
   Scaling of DF-GGA-C  ScalDFC         ....  1.000000
   Scaling of DF-LDA-C  ScalLDAC        ....  1.000000
   Perturbative correction              ....  0.000000
   Density functional embedding theory  .... OFF
   NL short-range parameter             ....  6.900000
 RI-approximation to the Coulomb term is turned on
   Number of AuxJ basis functions       .... 420
   RIJ-COSX (HFX calculated with COS-X)).... on


General Settings:
 Integral files         IntName         .... 15_2_orca
 Hartree-Fock type      HFTyp           .... UHF
 Total Charge           Charge          ....    0
 Multiplicity           Mult            ....    2
 Number of Electrons    NEL             ....   53
 Basis Dimension        Dim             ....  133
 Nuclear Repulsion      ENuc            ....    301.0408301232 Eh

Convergence Acceleration:
 DIIS                   CNVDIIS         .... on
   Start iteration      DIISMaxIt       ....    12
   Startup error        DIISStart       ....  0.200000
   # of expansion vecs  DIISMaxEq       ....     5
   Bias factor          DIISBfac        ....   1.050
   Max. coefficient     DIISMaxC        ....  10.000
 Trust-Rad. Augm. Hess. CNVTRAH         .... auto
   Auto Start mean grad. ratio tolernc. ....  1.125000
   Auto Start start iteration           ....    20
   Auto Start num. interpolation iter.  ....    10
   Max. Number of Micro iterations      ....    16
   Max. Number of Macro iterations      .... Maxiter - #DIIS iter
   Number of Davidson start vectors     ....     2
   Converg. threshold I  (grad. norm)   ....   1.000e-05
   Converg. threshold II (energy diff.) ....   1.000e-08
   Grad. Scal. Fac. for Micro threshold ....   0.100
   Minimum threshold for Micro iter.    ....   0.010
   NR start threshold (gradient norm)   ....   0.001
   Initial trust radius                 ....   0.400
   Minimum AH scaling param. (alpha)    ....   1.000
   Maximum AH scaling param. (alpha)    .... 1000.000
   Orbital update algorithm             .... Taylor
   White noise on init. David. guess    .... on
   Maximum white noise                  ....   0.010
   Quad. conv. algorithm                .... NR
 SOSCF                  CNVSOSCF        .... off
 Level Shifting         CNVShift        .... on
   Level shift para.    LevelShift      ....    0.2500
   Turn off err/grad.   ShiftErr        ....    0.0010
 Zerner damping         CNVZerner       .... off
 Static damping         CNVDamp         .... on
   Fraction old density DampFac         ....    0.7000
   Max. Damping (<1)    DampMax         ....    0.9800
   Min. Damping (>=0)   DampMin         ....    0.0000
   Turn off err/grad.   DampErr         ....    0.1000
 Fernandez-Rico         CNVRico         .... off

SCF Procedure:
 Maximum # iterations   MaxIter         ....   250
 SCF integral mode      SCFMode         .... Direct
   Integral package                     .... SHARK and LIBINT hybrid scheme
 Reset frequency        DirectResetFreq ....    20
 Integral Threshold     Thresh          ....  2.500e-11 Eh
 Primitive CutOff       TCut            ....  2.500e-12 Eh

Convergence Tolerance:
 Convergence Check Mode ConvCheckMode   .... Total+1el-Energy
 Convergence forced     ConvForced      .... 0
 Energy Change          TolE            ....  1.000e-08 Eh
 1-El. energy change                    ....  1.000e-05 Eh
 DIIS Error             TolErr          ....  5.000e-07


Diagonalization of the overlap matrix:
Smallest eigenvalue                        ... 7.492e-04
Time for diagonalization                   ...    0.002 sec
Threshold for overlap eigenvalues          ... 1.000e-08
Number of eigenvalues below threshold      ... 0
Time for construction of square roots      ...    0.001 sec
Total time needed                          ...    0.003 sec

Time for model grid setup =    0.117 sec

------------------------------
INITIAL GUESS: MODEL POTENTIAL
------------------------------
Loading Hartree-Fock densities                     ... done
Calculating cut-offs                               ... done
Initializing the effective Hamiltonian             ... done
Setting up the integral package (SHARK)            ... done
Starting the Coulomb interaction                   ... done (   0.1 sec)
Reading the grid                                   ... done
Mapping shells                                     ... done
Starting the XC term evaluation                    ... done (   0.1 sec)
  promolecular density results
     # of electrons  =     52.998522238
     EX              =    -43.882417849
     EC              =     -1.756683219
     EX+EC           =    -45.639101068
Transforming the Hamiltonian                       ... done (   0.0 sec)
Diagonalizing the Hamiltonian                      ... done (   0.0 sec)
Back transforming the eigenvectors                 ... done (   0.0 sec)
Now organizing SCF variables                       ... done
                      ------------------
                      INITIAL GUESS DONE (   0.3 sec)
                      ------------------
-------------------
DFT GRID GENERATION
-------------------

General Integration Accuracy     IntAcc      ... 4.388
Radial Grid Type                 RadialGrid  ... OptM3 with GC (2021)
Angular Grid (max. ang.)         AngularGrid ... 4 (Lebedev-302)
Angular grid pruning method      GridPruning ... 4 (adaptive)
Weight generation scheme         WeightScheme... Becke
Basis function cutoff            BFCut       ... 1.0000e-11
Integration weight cutoff        WCut        ... 1.0000e-14
Angular grids for H and He will be reduced by one unit
Partially contracted basis set               ... off
Rotationally invariant grid construction     ... off

Total number of grid points                  ...    64873
Total number of batches                      ...     1019
Average number of points per batch           ...       63
Average number of grid points per atom       ...     4634
Time for grid setup =    0.480 sec

--------------------
COSX GRID GENERATION
--------------------

GRIDX 1
-------
General Integration Accuracy     IntAcc      ... 3.816
Radial Grid Type                 RadialGrid  ... OptM3 with GC (2021)
Angular Grid (max. ang.)         AngularGrid ... 1 (Lebedev-50)
Angular grid pruning method      GridPruning ... 4 (adaptive)
Weight generation scheme         WeightScheme... Becke
Basis function cutoff            BFCut       ... 1.0000e-11
Integration weight cutoff        WCut        ... 1.0000e-14
Angular grids for H and He will be reduced by one unit
Partially contracted basis set               ... on
Rotationally invariant grid construction     ... off

Total number of grid points                  ...     8298
Total number of batches                      ...      136
Average number of points per batch           ...       61
Average number of grid points per atom       ...      593
UseSFitting                                  ... on

GRIDX 2
-------
General Integration Accuracy     IntAcc      ... 4.020
Radial Grid Type                 RadialGrid  ... OptM3 with GC (2021)
Angular Grid (max. ang.)         AngularGrid ... 2 (Lebedev-110)
Angular grid pruning method      GridPruning ... 4 (adaptive)
Weight generation scheme         WeightScheme... Becke
Basis function cutoff            BFCut       ... 1.0000e-11
Integration weight cutoff        WCut        ... 1.0000e-14
Angular grids for H and He will be reduced by one unit
Partially contracted basis set               ... on
Rotationally invariant grid construction     ... off

Total number of grid points                  ...    18044
Total number of batches                      ...      289
Average number of points per batch           ...       62
Average number of grid points per atom       ...     1289
UseSFitting                                  ... on

GRIDX 3
-------
General Integration Accuracy     IntAcc      ... 4.338
Radial Grid Type                 RadialGrid  ... OptM3 with GC (2021)
Angular Grid (max. ang.)         AngularGrid ... 3 (Lebedev-194)
Angular grid pruning method      GridPruning ... 4 (adaptive)
Weight generation scheme         WeightScheme... Becke
Basis function cutoff            BFCut       ... 1.0000e-11
Integration weight cutoff        WCut        ... 1.0000e-14
Angular grids for H and He will be reduced by one unit
Partially contracted basis set               ... on
Rotationally invariant grid construction     ... off

Total number of grid points                  ...    39637
Total number of batches                      ...      626
Average number of points per batch           ...       63
Average number of grid points per atom       ...     2831
UseSFitting                                  ... on

Time for X-Grid setup             =    0.539 sec

--------------
SCF ITERATIONS
--------------
ITER       Energy         Delta-E        Max-DP      RMS-DP      [F,P]     Damp
               ***  Starting incremental Fock matrix formation  ***
  0   -344.1646866531   0.000000000000 0.05186932  0.00147280  0.1539600 0.7000
  1   -344.2531449440  -0.088458290835 0.03895302  0.00099828  0.0599172 0.7000
                               ***Turning on DIIS***
  2   -344.2895136898  -0.036368745883 0.08069058  0.00167143  0.0237407 0.0000
  3   -344.3531038991  -0.063590209268 0.02837574  0.00087395  0.0529279 0.0000
  4   -344.3666676419  -0.013563742781 0.01110123  0.00034743  0.0103078 0.0000
  5   -344.3678179935  -0.001150351618 0.00652665  0.00020729  0.0070286 0.0000
  6   -344.3683889566  -0.000570963054 0.00440734  0.00011394  0.0039187 0.0000
  7   -344.3685737828  -0.000184826286 0.00168084  0.00005156  0.0020973 0.0000
  8   -344.3686327753  -0.000058992416 0.00147864  0.00003508  0.0012179 0.0000
  9   -344.3686568101  -0.000024034842 0.00151169  0.00004321  0.0006090 0.0000
               *** Restarting incremental Fock matrix formation ***
                                   *** Resetting DIIS ***
 10   -344.3687101395  -0.000053329399 0.00062630  0.00001119  0.0002824 0.0000
 11   -344.3687115825  -0.000001442955 0.00026403  0.00000509  0.0002303 0.0000
 12   -344.3687122427  -0.000000660201 0.00058897  0.00000793  0.0002009 0.0000
 13   -344.3687131486  -0.000000905958 0.00067726  0.00000892  0.0001466 0.0000
 14   -344.3687138547  -0.000000706058 0.00066789  0.00000870  0.0000861 0.0000
 15   -344.3687141733  -0.000000318628 0.00012612  0.00000172  0.0000249 0.0000
 16   -344.3687141977  -0.000000024373 0.00010114  0.00000135  0.0000150 0.0000
 17   -344.3687142041  -0.000000006459 0.00003332  0.00000048  0.0000066 0.0000
 18   -344.3687142067  -0.000000002572 0.00001937  0.00000029  0.0000035 0.0000
 19   -344.3687142071  -0.000000000357 0.00001463  0.00000023  0.0000035 0.0000
 20   -344.3687142048   0.000000002311 0.00000383  0.00000010  0.0000032 0.0000
 21   -344.3687142048  -0.000000000055 0.00000492  0.00000014  0.0000017 0.0000
 22   -344.3687142060  -0.000000001144 0.00000278  0.00000007  0.0000011 0.0000
 23   -344.3687142041   0.000000001865 0.00000215  0.00000006  0.0000011 0.0000
                 **** Energy Check signals convergence ****

               *****************************************************
               *                     SUCCESS                       *
               *           SCF CONVERGED AFTER  24 CYCLES          *
               *****************************************************

Old exchange energy                            =    -11.187192541 Eh
New exchange energy                            =    -11.187153873 Eh
Exchange energy change after final integration =      0.000038668 Eh
Total energy after final integration           =   -344.368675536 Eh
Final COS-X integration done in                =     4.877 sec

----------------
TOTAL SCF ENERGY
----------------

Total Energy       :         -344.36867554 Eh           -9370.74806 eV

Components:
Nuclear Repulsion  :          301.04083012 Eh            8191.73745 eV
Electronic Energy  :         -645.40950566 Eh          -17562.48551 eV
One Electron Energy:        -1065.34357228 Eh          -28989.47240 eV
Two Electron Energy:          419.93406662 Eh           11426.98689 eV
Max COSX asymmetry :            0.00000047 Eh               0.00001 eV

Virial components:
Potential Energy   :         -685.98985036 Eh          -18666.73283 eV
Kinetic Energy     :          341.62117483 Eh            9295.98477 eV
Virial Ratio       :            2.00804254


DFT components:
N(Alpha)           :       27.000011042341 electrons
N(Beta)            :       26.000011471809 electrons
N(Total)           :       53.000022514150 electrons
E(X)               :      -33.484117633301 Eh       
E(C)               :       -1.772190108689 Eh       
E(XC)              :      -35.256307741991 Eh       
DFET-embed. en.    :        0.000000000000 Eh       

---------------
SCF CONVERGENCE
---------------

  Last Energy change         ...   -4.1780e-11  Tolerance :   1.0000e-08
  Last MAX-Density change    ...    0.0000e+00  Tolerance :   1.0000e-07
  Last RMS-Density change    ...    0.0000e+00  Tolerance :   5.0000e-09
  Last DIIS Error            ...    1.0485e-06  Tolerance :   5.0000e-07

             **** THE GBW FILE WAS UPDATED (15_2_orca.gbw) ****
             **** DENSITY 15_2_orca.scfp WAS UPDATED ****
             **** ENERGY FILE WAS UPDATED (15_2_orca.en.tmp) ****
----------------------
UHF SPIN CONTAMINATION
----------------------

Warning: in a DFT calculation there is little theoretical justification to 
         calculate <S**2> as in Hartree-Fock theory. We will do it anyways
         but you should keep in mind that the values have only limited relevance

Expectation value of <S**2>     :     0.753431
Ideal value S*(S+1) for S=0.5   :     0.750000
Deviation                       :     0.003431

             **** THE GBW FILE WAS UPDATED (15_2_orca.gbw) ****
             **** DENSITY 15_2_orca.scfp WAS UPDATED ****
----------------
ORBITAL ENERGIES
----------------
                 SPIN UP ORBITALS
  NO   OCC          E(Eh)            E(eV) 
   0   1.0000     -19.241078      -523.5764 
   1   1.0000     -19.194903      -522.3199 
   2   1.0000     -10.298705      -280.2420 
   3   1.0000     -10.294130      -280.1175 
   4   1.0000     -10.250726      -278.9364 
   5   1.0000     -10.248843      -278.8852 
   6   1.0000     -10.245268      -278.7879 
   7   1.0000      -1.120910       -30.5015 
   8   1.0000      -0.954591       -25.9757 
   9   1.0000      -0.846419       -23.0322 
  10   1.0000      -0.748252       -20.3610 
  11   1.0000      -0.689265       -18.7559 
  12   1.0000      -0.603995       -16.4355 
  13   1.0000      -0.576396       -15.6845 
  14   1.0000      -0.563751       -15.3404 
  15   1.0000      -0.482519       -13.1300 
  16   1.0000      -0.466291       -12.6884 
  17   1.0000      -0.440367       -11.9830 
  18   1.0000      -0.422257       -11.4902 
  19   1.0000      -0.421564       -11.4713 
  20   1.0000      -0.402509       -10.9528 
  21   1.0000      -0.380190       -10.3455 
  22   1.0000      -0.366651        -9.9771 
  23   1.0000      -0.331746        -9.0273 
  24   1.0000      -0.289372        -7.8742 
  25   1.0000      -0.279345        -7.6014 
  26   1.0000      -0.247879        -6.7451 
  27   0.0000      -0.011151        -0.3034 
  28   0.0000       0.072061         1.9609 
  29   0.0000       0.096242         2.6189 
  30   0.0000       0.106609         2.9010 
  31   0.0000       0.109824         2.9885 
  32   0.0000       0.127681         3.4744 
  33   0.0000       0.140635         3.8269 
  34   0.0000       0.143197         3.8966 
  35   0.0000       0.148672         4.0456 
  36   0.0000       0.169600         4.6151 
  37   0.0000       0.193487         5.2650 
  38   0.0000       0.215337         5.8596 
  39   0.0000       0.301818         8.2129 
  40   0.0000       0.315980         8.5982 
  41   0.0000       0.393050        10.6954 
  42   0.0000       0.396350        10.7852 
  43   0.0000       0.455473        12.3940 
  44   0.0000       0.470721        12.8090 
  45   0.0000       0.477747        13.0001 
  46   0.0000       0.501854        13.6561 
  47   0.0000       0.518147        14.0995 
  48   0.0000       0.547301        14.8928 
  49   0.0000       0.557481        15.1698 
  50   0.0000       0.563882        15.3440 
  51   0.0000       0.596903        16.2426 
  52   0.0000       0.619562        16.8591 
  53   0.0000       0.639227        17.3943 
  54   0.0000       0.647063        17.6075 
  55   0.0000       0.659505        17.9461 
  56   0.0000       0.666648        18.1404 
  57   0.0000       0.678825        18.4718 
  58   0.0000       0.681339        18.5402 
  59   0.0000       0.688799        18.7432 
  60   0.0000       0.707521        19.2526 
  61   0.0000       0.731432        19.9033 
  62   0.0000       0.762899        20.7595 
  63   0.0000       0.779761        21.2184 
  64   0.0000       0.833935        22.6925 
  65   0.0000       0.902059        24.5463 
  66   0.0000       0.945556        25.7299 
  67   0.0000       0.970423        26.4066 
  68   0.0000       1.006907        27.3993 
  69   0.0000       1.015338        27.6288 
  70   0.0000       1.057747        28.7828 
  71   0.0000       1.068590        29.0778 
  72   0.0000       1.112084        30.2613 
  73   0.0000       1.126569        30.6555 
  74   0.0000       1.205341        32.7990 
  75   0.0000       1.216489        33.1024 
  76   0.0000       1.285128        34.9701 
  77   0.0000       1.350884        36.7594 
  78   0.0000       1.455542        39.6073 
  79   0.0000       1.498054        40.7641 
  80   0.0000       1.511199        41.1218 
  81   0.0000       1.521588        41.4045 
  82   0.0000       1.542825        41.9824 
  83   0.0000       1.562637        42.5215 
  84   0.0000       1.604155        43.6513 
  85   0.0000       1.632484        44.4222 
  86   0.0000       1.678937        45.6862 
  87   0.0000       1.693060        46.0705 
  88   0.0000       1.707867        46.4734 
  89   0.0000       1.750293        47.6279 
  90   0.0000       1.770775        48.1852 
  91   0.0000       1.794916        48.8422 
  92   0.0000       1.810518        49.2667 
  93   0.0000       1.852843        50.4184 
  94   0.0000       1.863549        50.7097 
  95   0.0000       1.883337        51.2482 
  96   0.0000       1.928806        52.4855 
  97   0.0000       1.953509        53.1577 
  98   0.0000       1.992594        54.2212 
  99   0.0000       2.023231        55.0549 
 100   0.0000       2.040634        55.5285 
 101   0.0000       2.072674        56.4003 
 102   0.0000       2.115916        57.5770 
 103   0.0000       2.155676        58.6589 
 104   0.0000       2.181404        59.3590 
 105   0.0000       2.233578        60.7788 
 106   0.0000       2.245962        61.1157 
 107   0.0000       2.267583        61.7041 
 108   0.0000       2.292987        62.3954 
 109   0.0000       2.382379        64.8278 
 110   0.0000       2.412420        65.6453 
 111   0.0000       2.517024        68.4917 
 112   0.0000       2.532601        68.9156 
 113   0.0000       2.574270        70.0494 
 114   0.0000       2.640011        71.8383 
 115   0.0000       2.683598        73.0244 
 116   0.0000       2.720144        74.0189 
 117   0.0000       2.736966        74.4766 
 118   0.0000       2.770081        75.3777 
 119   0.0000       2.784781        75.7777 
 120   0.0000       2.827276        76.9341 
 121   0.0000       2.854977        77.6879 
 122   0.0000       2.904641        79.0393 
 123   0.0000       2.943954        80.1091 
 124   0.0000       3.021110        82.2086 
 125   0.0000       3.029347        82.4327 
 126   0.0000       3.070360        83.5487 
 127   0.0000       3.101985        84.4093 
 128   0.0000       3.143939        85.5509 
 129   0.0000       3.328314        90.5680 
 130   0.0000       3.396781        92.4311 
 131   0.0000       3.453532        93.9754 
 132   0.0000       3.759070       102.2895 

                 SPIN DOWN ORBITALS
  NO   OCC          E(Eh)            E(eV) 
   0   1.0000     -19.234712      -523.4031 
   1   1.0000     -19.170194      -521.6475 
   2   1.0000     -10.298678      -280.2413 
   3   1.0000     -10.294335      -280.1231 
   4   1.0000     -10.250710      -278.9360 
   5   1.0000     -10.248425      -278.8738 
   6   1.0000     -10.245329      -278.7896 
   7   1.0000      -1.112533       -30.2736 
   8   1.0000      -0.892130       -24.2761 
   9   1.0000      -0.842538       -22.9266 
  10   1.0000      -0.748067       -20.3559 
  11   1.0000      -0.685470       -18.6526 
  12   1.0000      -0.603100       -16.4112 
  13   1.0000      -0.575203       -15.6521 
  14   1.0000      -0.559059       -15.2128 
  15   1.0000      -0.474541       -12.9129 
  16   1.0000      -0.464897       -12.6505 
  17   1.0000      -0.431539       -11.7428 
  18   1.0000      -0.420732       -11.4487 
  19   1.0000      -0.413656       -11.2562 
  20   1.0000      -0.387099       -10.5335 
  21   1.0000      -0.378461       -10.2985 
  22   1.0000      -0.339405        -9.2357 
  23   1.0000      -0.301339        -8.1999 
  24   1.0000      -0.265560        -7.2263 
  25   1.0000      -0.256688        -6.9848 
  26   0.0000      -0.052713        -1.4344 
  27   0.0000      -0.007834        -0.2132 
  28   0.0000       0.074153         2.0178 
  29   0.0000       0.098221         2.6727 
  30   0.0000       0.107736         2.9316 
  31   0.0000       0.110971         3.0197 
  32   0.0000       0.129575         3.5259 
  33   0.0000       0.141119         3.8400 
  34   0.0000       0.144549         3.9334 
  35   0.0000       0.149578         4.0702 
  36   0.0000       0.173510         4.7214 
  37   0.0000       0.195289         5.3141 
  38   0.0000       0.215978         5.8770 
  39   0.0000       0.302317         8.2265 
  40   0.0000       0.316260         8.6059 
  41   0.0000       0.393156        10.6983 
  42   0.0000       0.396781        10.7970 
  43   0.0000       0.456404        12.4194 
  44   0.0000       0.471544        12.8314 
  45   0.0000       0.478301        13.0152 
  46   0.0000       0.502724        13.6798 
  47   0.0000       0.518732        14.1154 
  48   0.0000       0.548982        14.9386 
  49   0.0000       0.560194        15.2436 
  50   0.0000       0.565050        15.3758 
  51   0.0000       0.597243        16.2518 
  52   0.0000       0.620075        16.8731 
  53   0.0000       0.640153        17.4194 
  54   0.0000       0.649160        17.6645 
  55   0.0000       0.664711        18.0877 
  56   0.0000       0.670699        18.2506 
  57   0.0000       0.679673        18.4949 
  58   0.0000       0.682288        18.5660 
  59   0.0000       0.689127        18.7521 
  60   0.0000       0.707959        19.2645 
  61   0.0000       0.732116        19.9219 
  62   0.0000       0.763509        20.7761 
  63   0.0000       0.780576        21.2406 
  64   0.0000       0.834420        22.7057 
  65   0.0000       0.907477        24.6937 
  66   0.0000       0.957401        26.0522 
  67   0.0000       0.977563        26.6008 
  68   0.0000       1.016021        27.6473 
  69   0.0000       1.041793        28.3486 
  70   0.0000       1.078324        29.3427 
  71   0.0000       1.085368        29.5344 
  72   0.0000       1.123540        30.5731 
  73   0.0000       1.143620        31.1195 
  74   0.0000       1.215955        33.0878 
  75   0.0000       1.218145        33.1474 
  76   0.0000       1.293217        35.1902 
  77   0.0000       1.351622        36.7795 
  78   0.0000       1.456922        39.6449 
  79   0.0000       1.498774        40.7837 
  80   0.0000       1.520212        41.3671 
  81   0.0000       1.524631        41.4873 
  82   0.0000       1.549074        42.1524 
  83   0.0000       1.565962        42.6120 
  84   0.0000       1.608935        43.7813 
  85   0.0000       1.633823        44.4586 
  86   0.0000       1.682530        45.7840 
  87   0.0000       1.693708        46.0881 
  88   0.0000       1.708427        46.4887 
  89   0.0000       1.751162        47.6516 
  90   0.0000       1.771845        48.2144 
  91   0.0000       1.799479        48.9663 
  92   0.0000       1.811535        49.2944 
  93   0.0000       1.853861        50.4461 
  94   0.0000       1.865407        50.7603 
  95   0.0000       1.885122        51.2968 
  96   0.0000       1.929485        52.5039 
  97   0.0000       1.954482        53.1842 
  98   0.0000       1.992986        54.2319 
  99   0.0000       2.023910        55.0734 
 100   0.0000       2.041678        55.5569 
 101   0.0000       2.073659        56.4271 
 102   0.0000       2.117723        57.6262 
 103   0.0000       2.156033        58.6686 
 104   0.0000       2.182273        59.3827 
 105   0.0000       2.234453        60.8026 
 106   0.0000       2.255168        61.3662 
 107   0.0000       2.274164        61.8832 
 108   0.0000       2.294734        62.4429 
 109   0.0000       2.382663        64.8356 
 110   0.0000       2.413054        65.6625 
 111   0.0000       2.517937        68.5166 
 112   0.0000       2.533459        68.9389 
 113   0.0000       2.576775        70.1176 
 114   0.0000       2.645267        71.9814 
 115   0.0000       2.719687        74.0064 
 116   0.0000       2.748170        74.7815 
 117   0.0000       2.752174        74.8905 
 118   0.0000       2.782568        75.7175 
 119   0.0000       2.788297        75.8734 
 120   0.0000       2.849409        77.5364 
 121   0.0000       2.869505        78.0832 
 122   0.0000       2.928019        79.6754 
 123   0.0000       2.965280        80.6894 
 124   0.0000       3.031805        82.4996 
 125   0.0000       3.070187        83.5440 
 126   0.0000       3.082803        83.8873 
 127   0.0000       3.109758        84.6208 
 128   0.0000       3.146453        85.6193 
 129   0.0000       3.334912        90.7476 
 130   0.0000       3.401596        92.5621 
 131   0.0000       3.456320        94.0512 
 132   0.0000       3.780706       102.8782 

                    ********************************
                    * MULLIKEN POPULATION ANALYSIS *
                    ********************************

--------------------------------------------
MULLIKEN ATOMIC CHARGES AND SPIN POPULATIONS
--------------------------------------------
   0 O :   -0.270860    0.872290
   1 O :   -0.302611    0.138419
   2 C :    0.031288   -0.010902
   3 C :    0.060740    0.000936
   4 C :    0.030010   -0.011293
   5 C :   -0.121772    0.027727
   6 C :    0.086124   -0.000543
   7 H :    0.160734   -0.021780
   8 H :    0.068931    0.002504
   9 H :    0.047489    0.003147
  10 H :    0.036458    0.000768
  11 H :    0.031328   -0.001433
  12 H :    0.068707   -0.000023
  13 H :    0.073436    0.000185
Sum of atomic charges         :   -0.0000000
Sum of atomic spin populations:    1.0000000

-----------------------------------------------------
MULLIKEN REDUCED ORBITAL CHARGES AND SPIN POPULATIONS
-----------------------------------------------------
CHARGE
  0 O s       :     3.858889  s :     3.858889
      pz      :     1.365323  p :     4.404893
      px      :     1.175235
      py      :     1.864334
      dz2     :     0.001937  d :     0.007077
      dxz     :     0.002275
      dyz     :     0.001593
      dx2y2   :     0.000673
      dxy     :     0.000600
  1 O s       :     3.881013  s :     3.881013
      pz      :     1.352735  p :     4.401478
      px      :     1.591813
      py      :     1.456930
      dz2     :     0.005660  d :     0.020120
      dxz     :     0.002767
      dyz     :     0.005115
      dx2y2   :     0.002947
      dxy     :     0.003631
  2 C s       :     3.197036  s :     3.197036
      pz      :     0.758691  p :     2.700530
      px      :     1.000268
      py      :     0.941571
      dz2     :     0.021020  d :     0.071146
      dxz     :     0.015908
      dyz     :     0.018028
      dx2y2   :     0.007168
      dxy     :     0.009022
  3 C s       :     3.184979  s :     3.184979
      pz      :     0.952466  p :     2.684731
      px      :     0.918229
      py      :     0.814036
      dz2     :     0.008547  d :     0.069550
      dxz     :     0.011441
      dyz     :     0.012957
      dx2y2   :     0.017385
      dxy     :     0.019220
  4 C s       :     3.159157  s :     3.159157
      pz      :     0.980299  p :     2.776902
      px      :     0.836493
      py      :     0.960109
      dz2     :     0.006053  d :     0.033931
      dxz     :     0.007847
      dyz     :     0.004796
      dx2y2   :     0.007637
      dxy     :     0.007598
  5 C s       :     3.221112  s :     3.221112
      pz      :     0.976293  p :     2.865060
      px      :     0.958786
      py      :     0.929981
      dz2     :     0.007998  d :     0.035601
      dxz     :     0.006265
      dyz     :     0.005116
      dx2y2   :     0.007341
      dxy     :     0.008881
  6 C s       :     2.952710  s :     2.952710
      pz      :     0.973345  p :     2.926678
      px      :     0.933559
      py      :     1.019774
      dz2     :     0.007646  d :     0.034488
      dxz     :     0.007297
      dyz     :     0.005318
      dx2y2   :     0.007176
      dxy     :     0.007051
  7 H s       :     0.772073  s :     0.772073
      pz      :     0.028057  p :     0.067193
      px      :     0.016210
      py      :     0.022927
  8 H s       :     0.908364  s :     0.908364
      pz      :     0.002598  p :     0.022705
      px      :     0.015008
      py      :     0.005098
  9 H s       :     0.930238  s :     0.930238
      pz      :     0.007099  p :     0.022273
      px      :     0.003474
      py      :     0.011700
 10 H s       :     0.939588  s :     0.939588
      pz      :     0.007617  p :     0.023954
      px      :     0.011418
      py      :     0.004920
 11 H s       :     0.943836  s :     0.943836
      pz      :     0.004912  p :     0.024836
      px      :     0.009964
      py      :     0.009960
 12 H s       :     0.907990  s :     0.907990
      pz      :     0.012983  p :     0.023303
      px      :     0.004612
      py      :     0.005708
 13 H s       :     0.903377  s :     0.903377
      pz      :     0.004381  p :     0.023187
      px      :     0.005689
      py      :     0.013117

SPIN
  0 O s       :     0.011938  s :     0.011938
      pz      :     0.139336  p :     0.860055
      px      :     0.696599
      py      :     0.024119
      dz2     :    -0.000116  d :     0.000296
      dxz     :     0.000283
      dyz     :     0.000038
      dx2y2   :     0.000009
      dxy     :     0.000082
  1 O s       :     0.011223  s :     0.011223
      pz      :     0.020918  p :     0.126627
      px      :     0.087394
      py      :     0.018314
      dz2     :    -0.000136  d :     0.000570
      dxz     :     0.000406
      dyz     :     0.000014
      dx2y2   :     0.000305
      dxy     :    -0.000020
  2 C s       :    -0.001191  s :    -0.001191
      pz      :    -0.006500  p :    -0.010481
      px      :    -0.001804
      py      :    -0.002177
      dz2     :     0.000160  d :     0.000770
      dxz     :     0.000484
      dyz     :    -0.000011
      dx2y2   :     0.000007
      dxy     :     0.000130
  3 C s       :     0.000282  s :     0.000282
      pz      :     0.000190  p :    -0.000272
      px      :    -0.000137
      py      :    -0.000325
      dz2     :     0.000024  d :     0.000926
      dxz     :     0.000015
      dyz     :    -0.000028
      dx2y2   :     0.001015
      dxy     :    -0.000101
  4 C s       :    -0.002121  s :    -0.002121
      pz      :    -0.006378  p :    -0.009434
      px      :     0.002856
      py      :    -0.005911
      dz2     :     0.000066  d :     0.000262
      dxz     :     0.000050
      dyz     :     0.000019
      dx2y2   :     0.000076
      dxy     :     0.000051
  5 C s       :     0.004382  s :     0.004382
      pz      :     0.010894  p :     0.023452
      px      :     0.003421
      py      :     0.009137
      dz2     :    -0.000036  d :    -0.000107
      dxz     :    -0.000020
      dyz     :    -0.000037
      dx2y2   :    -0.000032
      dxy     :     0.000017
  6 C s       :    -0.000714  s :    -0.000714
      pz      :     0.000044  p :     0.000124
      px      :    -0.000527
      py      :     0.000608
      dz2     :    -0.000016  d :     0.000047
      dxz     :     0.000027
      dyz     :     0.000002
      dx2y2   :    -0.000009
      dxy     :     0.000043
  7 H s       :    -0.027356  s :    -0.027356
      pz      :     0.001458  p :     0.005576
      px      :     0.004540
      py      :    -0.000421
  8 H s       :     0.002583  s :     0.002583
      pz      :    -0.000045  p :    -0.000079
      px      :    -0.000023
      py      :    -0.000010
  9 H s       :     0.003198  s :     0.003198
      pz      :    -0.000030  p :    -0.000051
      px      :    -0.000013
      py      :    -0.000008
 10 H s       :     0.000804  s :     0.000804
      pz      :     0.000003  p :    -0.000036
      px      :    -0.000003
      py      :    -0.000036
 11 H s       :    -0.001616  s :    -0.001616
      pz      :     0.000091  p :     0.000183
      px      :     0.000039
      py      :     0.000053
 12 H s       :    -0.000040  s :    -0.000040
      pz      :    -0.000002  p :     0.000016
      px      :     0.000015
      py      :     0.000003
 13 H s       :     0.000193  s :     0.000193
      pz      :    -0.000001  p :    -0.000008
      px      :    -0.000005
      py      :    -0.000002


                     *******************************
                     * LOEWDIN POPULATION ANALYSIS *
                     *******************************

-------------------------------------------
LOEWDIN ATOMIC CHARGES AND SPIN POPULATIONS
-------------------------------------------
   0 O :   -0.175225    0.828894
   1 O :   -0.106485    0.153135
   2 C :    0.068860   -0.005502
   3 C :    0.054743    0.001702
   4 C :   -0.054073   -0.006662
   5 C :    0.001623    0.020843
   6 C :   -0.046312    0.000625
   7 H :    0.042320    0.003546
   8 H :    0.031330    0.001283
   9 H :    0.027668    0.001702
  10 H :    0.034041    0.000339
  11 H :    0.025313   -0.000012
  12 H :    0.046613    0.000042
  13 H :    0.049585    0.000066

----------------------------------------------------
LOEWDIN REDUCED ORBITAL CHARGES AND SPIN POPULATIONS
----------------------------------------------------
CHARGE
  0 O s       :     3.680319  s :     3.680319
      pz      :     1.433486  p :     4.482025
      px      :     1.199350
      py      :     1.849189
      dz2     :     0.003504  d :     0.012881
      dxz     :     0.004514
      dyz     :     0.002864
      dx2y2   :     0.001093
      dxy     :     0.000906
  1 O s       :     3.572636  s :     3.572636
      pz      :     1.407762  p :     4.500526
      px      :     1.580820
      py      :     1.511944
      dz2     :     0.009080  d :     0.033323
      dxz     :     0.004301
      dyz     :     0.009369
      dx2y2   :     0.004563
      dxy     :     0.006010
  2 C s       :     2.860253  s :     2.860253
      pz      :     0.857723  p :     2.914186
      px      :     1.056830
      py      :     0.999633
      dz2     :     0.042347  d :     0.156701
      dxz     :     0.037716
      dyz     :     0.040475
      dx2y2   :     0.014711
      dxy     :     0.021451
  3 C s       :     2.864170  s :     2.864170
      pz      :     1.018380  p :     2.927198
      px      :     0.989591
      py      :     0.919227
      dz2     :     0.018554  d :     0.153889
      dxz     :     0.026095
      dyz     :     0.028731
      dx2y2   :     0.040610
      dxy     :     0.039900
  4 C s       :     2.880832  s :     2.880832
      pz      :     1.030608  p :     3.085176
      px      :     1.016932
      py      :     1.037636
      dz2     :     0.013191  d :     0.088065
      dxz     :     0.020366
      dyz     :     0.013922
      dx2y2   :     0.020967
      dxy     :     0.019619
  5 C s       :     2.879720  s :     2.879720
      pz      :     0.999976  p :     3.030663
      px      :     1.003673
      py      :     1.027013
      dz2     :     0.016392  d :     0.087995
      dxz     :     0.015709
      dyz     :     0.014549
      dx2y2   :     0.019331
      dxy     :     0.022013
  6 C s       :     2.844088  s :     2.844088
      pz      :     1.038540  p :     3.113496
      px      :     1.017699
      py      :     1.057257
      dz2     :     0.019792  d :     0.088728
      dxz     :     0.019350
      dyz     :     0.013024
      dx2y2   :     0.018855
      dxy     :     0.017708
  7 H s       :     0.773876  s :     0.773876
      pz      :     0.081048  p :     0.183805
      px      :     0.043214
      py      :     0.059542
  8 H s       :     0.896423  s :     0.896423
      pz      :     0.010815  p :     0.072247
      px      :     0.044067
      py      :     0.017365
  9 H s       :     0.902582  s :     0.902582
      pz      :     0.021961  p :     0.069750
      px      :     0.013501
      py      :     0.034289
 10 H s       :     0.895710  s :     0.895710
      pz      :     0.021864  p :     0.070249
      px      :     0.033767
      py      :     0.014618
 11 H s       :     0.899776  s :     0.899776
      pz      :     0.016169  p :     0.074912
      px      :     0.030626
      py      :     0.028117
 12 H s       :     0.886424  s :     0.886424
      pz      :     0.037359  p :     0.066964
      px      :     0.013484
      py      :     0.016121
 13 H s       :     0.882754  s :     0.882754
      pz      :     0.012638  p :     0.067661
      px      :     0.017399
      py      :     0.037625

SPIN
  0 O s       :     0.010905  s :     0.010905
      pz      :     0.129408  p :     0.817872
      px      :     0.665623
      py      :     0.022841
      dz2     :    -0.000151  d :     0.000117
      dxz     :     0.000286
      dyz     :    -0.000127
      dx2y2   :     0.000047
      dxy     :     0.000062
  1 O s       :     0.016748  s :     0.016748
      pz      :     0.021515  p :     0.135647
      px      :     0.097335
      py      :     0.016797
      dz2     :    -0.000095  d :     0.000740
      dxz     :     0.000470
      dyz     :     0.000007
      dx2y2   :     0.000401
      dxy     :    -0.000043
  2 C s       :    -0.000765  s :    -0.000765
      pz      :    -0.003791  p :    -0.006854
      px      :    -0.000640
      py      :    -0.002424
      dz2     :     0.000582  d :     0.002116
      dxz     :     0.001303
      dyz     :    -0.000057
      dx2y2   :     0.000050
      dxy     :     0.000238
  3 C s       :    -0.000314  s :    -0.000314
      pz      :     0.000517  p :     0.000115
      px      :     0.000022
      py      :    -0.000424
      dz2     :    -0.000001  d :     0.001902
      dxz     :     0.000037
      dyz     :     0.000003
      dx2y2   :     0.001947
      dxy     :    -0.000084
  4 C s       :     0.000292  s :     0.000292
      pz      :    -0.004513  p :    -0.007631
      px      :     0.001826
      py      :    -0.004944
      dz2     :     0.000136  d :     0.000677
      dxz     :     0.000094
      dyz     :     0.000032
      dx2y2   :     0.000289
      dxy     :     0.000127
  5 C s       :     0.000945  s :     0.000945
      pz      :     0.009987  p :     0.020142
      px      :     0.003431
      py      :     0.006725
      dz2     :    -0.000112  d :    -0.000244
      dxz     :    -0.000022
      dyz     :    -0.000043
      dx2y2   :    -0.000075
      dxy     :     0.000008
  6 C s       :     0.000104  s :     0.000104
      pz      :     0.000145  p :     0.000396
      px      :    -0.000132
      py      :     0.000383
      dz2     :    -0.000022  d :     0.000125
      dxz     :     0.000075
      dyz     :     0.000007
      dx2y2   :    -0.000018
      dxy     :     0.000083
  7 H s       :    -0.018463  s :    -0.018463
      pz      :     0.006925  p :     0.022009
      px      :     0.014754
      py      :     0.000331
  8 H s       :     0.001528  s :     0.001528
      pz      :    -0.000145  p :    -0.000245
      px      :    -0.000017
      py      :    -0.000084
  9 H s       :     0.001821  s :     0.001821
      pz      :     0.000008  p :    -0.000119
      px      :    -0.000006
      py      :    -0.000121
 10 H s       :     0.000491  s :     0.000491
      pz      :    -0.000077  p :    -0.000153
      px      :     0.000041
      py      :    -0.000117
 11 H s       :    -0.000699  s :    -0.000699
      pz      :     0.000308  p :     0.000687
      px      :     0.000155
      py      :     0.000224
 12 H s       :    -0.000024  s :    -0.000024
      pz      :     0.000004  p :     0.000065
      px      :     0.000044
      py      :     0.000017
 13 H s       :     0.000076  s :     0.000076
      pz      :     0.000006  p :    -0.000009
      px      :    -0.000015
      py      :    -0.000000


                      *****************************
                      * MAYER POPULATION ANALYSIS *
                      *****************************

  NA   - Mulliken gross atomic population
  ZA   - Total nuclear charge
  QA   - Mulliken gross atomic charge
  VA   - Mayer's total valence
  BVA  - Mayer's bonded valence
  FA   - Mayer's free valence

  ATOM       NA         ZA         QA         VA         BVA        FA
  0 O      8.2709     8.0000    -0.2709     2.0113     1.2947     0.7166
  1 O      8.3026     8.0000    -0.3026     2.0812     2.0603     0.0209
  2 C      5.9687     6.0000     0.0313     3.9489     3.9488     0.0001
  3 C      5.9393     6.0000     0.0607     3.9162     3.9161     0.0000
  4 C      5.9700     6.0000     0.0300     3.7808     3.7807     0.0002
  5 C      6.1218     6.0000    -0.1218     3.9657     3.9652     0.0005
  6 C      5.9139     6.0000     0.0861     3.8166     3.8166     0.0000
  7 H      0.8393     1.0000     0.1607     1.0144     1.0133     0.0011
  8 H      0.9311     1.0000     0.0689     1.0146     1.0145     0.0000
  9 H      0.9525     1.0000     0.0475     0.9950     0.9950     0.0000
 10 H      0.9635     1.0000     0.0365     0.9886     0.9886     0.0000
 11 H      0.9687     1.0000     0.0313     0.9911     0.9911     0.0000
 12 H      0.9313     1.0000     0.0687     0.9781     0.9781     0.0000
 13 H      0.9266     1.0000     0.0734     0.9819     0.9819     0.0000

  Mayer bond orders larger than 0.100000
B(  0-O ,  1-O ) :   0.2018 B(  0-O ,  7-H ) :   0.9934 B(  1-O ,  2-C ) :   0.9025 
B(  1-O ,  3-C ) :   0.8888 B(  2-C ,  3-C ) :   1.0240 B(  2-C ,  6-C ) :   1.0015 
B(  2-C ,  8-H ) :   0.9574 B(  3-C ,  4-C ) :   0.9746 B(  3-C ,  9-H ) :   0.9722 
B(  4-C ,  5-C ) :   1.8241 B(  4-C , 10-H ) :   0.9961 B(  5-C ,  6-C ) :   1.0139 
B(  5-C , 11-H ) :   0.9773 B(  6-C , 12-H ) :   0.9281 B(  6-C , 13-H ) :   0.9271 



------------------
HIRSHFELD ANALYSIS
------------------

Total integrated alpha density =     27.000011042
Total integrated beta density  =     26.000011472

  ATOM     CHARGE      SPIN    
   0 O   -0.267238    0.800790
   1 O   -0.127805    0.152274
   2 C    0.057190   -0.000294
   3 C    0.044183    0.004838
   4 C   -0.049403   -0.002223
   5 C   -0.020961    0.017485
   6 C   -0.037932    0.001815
   7 H    0.131198    0.021152
   8 H    0.051899    0.001453
   9 H    0.050966    0.001204
  10 H    0.043958    0.000003
  11 H    0.041544    0.001092
  12 H    0.038247    0.000256
  13 H    0.044131    0.000153

  TOTAL  -0.000023    1.000000

-------
TIMINGS
-------

Total SCF time: 0 days 0 hours 1 min 3 sec 

Total time                  ....      63.045 sec
Sum of individual times     ....      62.889 sec  ( 99.8%)

Fock matrix formation       ....      61.047 sec  ( 96.8%)
  Split-RI-J                ....       3.865 sec  (  6.3% of F)
  Chain of spheres X        ....      42.015 sec  ( 68.8% of F)
  XC integration            ....      15.168 sec  ( 24.8% of F)
    Basis function eval.    ....       4.550 sec  ( 30.0% of XC)
    Density eval.           ....       4.229 sec  ( 27.9% of XC)
    XC-Functional eval.     ....       1.538 sec  ( 10.1% of XC)
    XC-Potential eval.      ....       4.487 sec  ( 29.6% of XC)
Diagonalization             ....       0.103 sec  (  0.2%)
Density matrix formation    ....       0.008 sec  (  0.0%)
Population analysis         ....       0.352 sec  (  0.6%)
Initial guess               ....       0.214 sec  (  0.3%)
Orbital Transformation      ....       0.000 sec  (  0.0%)
Orbital Orthonormalization  ....       0.000 sec  (  0.0%)
DIIS solution               ....       0.028 sec  (  0.0%)
Grid generation             ....       1.136 sec  (  1.8%)

Maximum memory used throughout the entire SCF-calculation: 63.5 MB


-------------------------------------------------------------------------------
                          DFT DISPERSION CORRECTION                            
                                                                               
                              DFTD3 V3.1  Rev 1                                
                          USING Becke-Johnson damping                          
-------------------------------------------------------------------------------
The PBE0 functional is recognized
Active option DFTDOPT                   ...         4   

molecular C6(AA) [au] = 1742.255047 


            DFT-D V3
 parameters
 s6 scaling factor         :     1.0000 
 a1 scaling factor         :     0.4145 
 s8 scaling factor         :     1.2177 
 a2 scaling factor         :     4.8593 
 ad hoc parameters k1-k3   :    16.0000     1.3333    -4.0000 

 Edisp/kcal,au: -6.147104644274  -0.009796033753 
 E6   /kcal   :  -3.909846482 
 E8   /kcal   :  -2.237258162 
 % E8         :  36.395316027 

-------------------------   ----------------
Dispersion correction           -0.009796034
-------------------------   ----------------


-------------------------   --------------------
FINAL SINGLE POINT ENERGY      -344.378471570086
-------------------------   --------------------

------------------------------------------------------------------------------
                         ORCA SCF GRADIENT CALCULATION
------------------------------------------------------------------------------

 ... reading COSX grid (gridx3)
Gradient of the Kohn-Sham DFT energy:
Kohn-Sham wavefunction type      ... UKS
Hartree-Fock exchange scaling    ...    0.250
Number of operators              ...    2
Number of atoms                  ...   14
Basis set dimensions             ...  133
Integral neglect threshold       ... 2.5e-11
Integral primitive cutoff        ... 2.5e-12
SHARK Integral package           ... ON

Nuc. rep. gradient       (SHARK) ... done (  0.0 sec)
HCore & Overlap gradient (SHARK) ... done (  0.1 sec)
RI-J gradient            (SHARK) ... done (  0.6 sec)
COSX-gradient                    ... done (  6.6 sec)
Exchange-correlation gradient    ... done
Dispersion correction            ... done

------------------
CARTESIAN GRADIENT
------------------

   1   O   :    0.022092897   -0.005466764   -0.006855790
   2   O   :   -0.001977860   -0.011137673    0.007806432
   3   C   :   -0.001660846    0.009133621   -0.010013030
   4   C   :   -0.001062914    0.008001583   -0.004675767
   5   C   :   -0.004539296    0.001621632    0.001237183
   6   C   :    0.013526846   -0.012496775    0.004522218
   7   C   :   -0.009939085   -0.001745057   -0.000363970
   8   H   :    0.000527966    0.001346583   -0.001811483
   9   H   :   -0.001545257    0.000606152    0.000681791
  10   H   :   -0.002949629   -0.000472462    0.003764178
  11   H   :    0.002927333    0.001266978   -0.000645055
  12   H   :   -0.017698347    0.008800305    0.007416757
  13   H   :    0.005136409   -0.000345080   -0.000426490
  14   H   :   -0.002914824    0.000934583   -0.000752004

Difference to translation invariance:
           :   -0.0000766061    0.0000476240   -0.0001150312

Difference to rotation invariance:
           :   -0.0004683711   -0.0004284531   -0.0002052836

Norm of the cartesian gradient     ...    0.0451469644
RMS gradient                       ...    0.0069663279
MAX gradient                       ...    0.0220928969

-------
TIMINGS
-------

Total SCF gradient time            ...       11.116 sec

One electron gradient       ....       0.095 sec  (  0.9%)
RI-J Coulomb gradient       ....       0.592 sec  (  5.3%)
COSX gradient               ....       6.626 sec  ( 59.6%)
XC gradient                 ....       3.510 sec  ( 31.6%)

Maximum memory used throughout the entire SCFGRAD-calculation: 50.3 MB

                            ***************************************
                            *     ORCA property calculations      *
                            ***************************************

                                    ---------------------
                                    Active property flags
                                    ---------------------
   (+) Dipole Moment


------------------------------------------------------------------------------
                       ORCA ELECTRIC PROPERTIES CALCULATION
------------------------------------------------------------------------------

Dipole Moment Calculation                       ... on
Quadrupole Moment Calculation                   ... off
Polarizability Calculation                      ... off
GBWName                                         ... 15_2_orca.gbw
Electron density                                ... 15_2_orca.scfp
The origin for moment calculation is the CENTER OF MASS  = (-0.358321, -0.044523  0.377165)

-------------
DIPOLE MOMENT
-------------
                                X             Y             Z
Electronic contribution:     -0.88308       0.29850       1.74965
Nuclear contribution   :      1.75636       0.22933      -2.12477
                        -----------------------------------------
Total Dipole Moment    :      0.87328       0.52783      -0.37512
                        -----------------------------------------
Magnitude (a.u.)       :      1.08717
Magnitude (Debye)      :      2.76337



--------------------
Rotational spectrum 
--------------------
 
Rotational constants in cm-1:     0.199244     0.068717     0.058532 
Rotational constants in MHz :  5973.195559  2060.092674  1754.731506 

 Dipole components along the rotational axes: 
x,y,z [a.u.] :     0.905342     0.398395     0.451197 
x,y,z [Debye]:     2.301197     1.012639     1.146851 

 

Timings for individual modules:

Sum of individual times         ...       74.369 sec (=   1.239 min)
GTO integral calculation        ...        0.158 sec (=   0.003 min)   0.2 %
SCF iterations                  ...       63.067 sec (=   1.051 min)  84.8 %
SCF Gradient evaluation         ...       11.144 sec (=   0.186 min)  15.0 %
                             ****ORCA TERMINATED NORMALLY****
TOTAL RUN TIME: 0 days 0 hours 1 minutes 14 seconds 522 msec
