
                                 *****************
                                 * O   R   C   A *
                                 *****************

                                            #,                                       
                                            ###                                      
                                            ####                                     
                                            #####                                    
                                            ######                                   
                                           ########,                                 
                                     ,,################,,,,,                         
                               ,,#################################,,                 
                          ,,##########################################,,             
                       ,#########################################, ''#####,          
                    ,#############################################,,   '####,        
                  ,##################################################,,,,####,       
                ,###########''''           ''''###############################       
              ,#####''   ,,,,##########,,,,          '''####'''          '####       
            ,##' ,,,,###########################,,,                        '##       
           ' ,,###''''                  '''############,,,                           
         ,,##''                                '''############,,,,        ,,,,,,###''
      ,#''                                            '''#######################'''  
     '                                                          ''''####''''         
             ,#######,   #######,   ,#######,      ##                                
            ,#'     '#,  ##    ##  ,#'     '#,    #''#        ######   ,####,        
            ##       ##  ##   ,#'  ##            #'  '#       #        #'  '#        
            ##       ##  #######   ##           ,######,      #####,   #    #        
            '#,     ,#'  ##    ##  '#,     ,#' ,#      #,         ##   #,  ,#        
             '#######'   ##     ##  '#######'  #'      '#     #####' # '####'        



                  #######################################################
                  #                        -***-                        #
                  #          Department of theory and spectroscopy      #
                  #    Directorship and core code : Frank Neese         #
                  #        Max Planck Institute fuer Kohlenforschung    #
                  #                Kaiser Wilhelm Platz 1               #
                  #                 D-45470 Muelheim/Ruhr               #
                  #                      Germany                        #
                  #                                                     #
                  #                  All rights reserved                #
                  #                        -***-                        #
                  #######################################################


                         Program Version 5.0.4 -  RELEASE  -


 With contributions from (in alphabetic order):
   Daniel Aravena         : Magnetic Suceptibility
   Michael Atanasov       : Ab Initio Ligand Field Theory (pilot matlab implementation)
   Alexander A. Auer      : GIAO ZORA, VPT2 properties, NMR spectrum
   Ute Becker             : Parallelization
   Giovanni Bistoni       : ED, misc. LED, open-shell LED, HFLD
   Martin Brehm           : Molecular dynamics
   Dmytro Bykov           : SCF Hessian
   Vijay G. Chilkuri      : MRCI spin determinant printing, contributions to CSF-ICE
   Dipayan Datta          : RHF DLPNO-CCSD density
   Achintya Kumar Dutta   : EOM-CC, STEOM-CC
   Dmitry Ganyushin       : Spin-Orbit,Spin-Spin,Magnetic field MRCI
   Miquel Garcia          : C-PCM and meta-GGA Hessian, CC/C-PCM, Gaussian charge scheme
   Yang Guo               : DLPNO-NEVPT2, F12-NEVPT2, CIM, IAO-localization
   Andreas Hansen         : Spin unrestricted coupled pair/coupled cluster methods
   Benjamin Helmich-Paris : MC-RPA, TRAH-SCF, COSX integrals
   Lee Huntington         : MR-EOM, pCC
   Robert Izsak           : Overlap fitted RIJCOSX, COSX-SCS-MP3, EOM
   Marcus Kettner         : VPT2
   Christian Kollmar      : KDIIS, OOCD, Brueckner-CCSD(T), CCSD density, CASPT2, CASPT2-K
   Simone Kossmann        : Meta GGA functionals, TD-DFT gradient, OOMP2, MP2 Hessian
   Martin Krupicka        : Initial AUTO-CI
   Lucas Lang             : DCDCAS
   Marvin Lechner         : AUTO-CI (C++ implementation), FIC-MRCC
   Dagmar Lenk            : GEPOL surface, SMD
   Dimitrios Liakos       : Extrapolation schemes; Compound Job, initial MDCI parallelization
   Dimitrios Manganas     : Further ROCIS development; embedding schemes
   Dimitrios Pantazis     : SARC Basis sets
   Anastasios Papadopoulos: AUTO-CI, single reference methods and gradients
   Taras Petrenko         : DFT Hessian,TD-DFT gradient, ASA, ECA, R-Raman, ABS, FL, XAS/XES, NRVS
   Peter Pinski           : DLPNO-MP2, DLPNO-MP2 Gradient
   Christoph Reimann      : Effective Core Potentials
   Marius Retegan         : Local ZFS, SOC
   Christoph Riplinger    : Optimizer, TS searches, QM/MM, DLPNO-CCSD(T), (RO)-DLPNO pert. Triples
   Tobias Risthaus        : Range-separated hybrids, TD-DFT gradient, RPA, STAB
   Michael Roemelt        : Original ROCIS implementation
   Masaaki Saitow         : Open-shell DLPNO-CCSD energy and density
   Barbara Sandhoefer     : DKH picture change effects
   Avijit Sen             : IP-ROCIS
   Kantharuban Sivalingam : CASSCF convergence, NEVPT2, FIC-MRCI
   Bernardo de Souza      : ESD, SOC TD-DFT
   Georgi Stoychev        : AutoAux, RI-MP2 NMR, DLPNO-MP2 response
   Willem Van den Heuvel  : Paramagnetic NMR
   Boris Wezisla          : Elementary symmetry handling
   Frank Wennmohs         : Technical directorship


 We gratefully acknowledge several colleagues who have allowed us to
 interface, adapt or use parts of their codes:
   Stefan Grimme, W. Hujo, H. Kruse, P. Pracht,  : VdW corrections, initial TS optimization,
                  C. Bannwarth, S. Ehlert          DFT functionals, gCP, sTDA/sTD-DF
   Ed Valeev, F. Pavosevic, A. Kumar             : LibInt (2-el integral package), F12 methods
   Garnet Chan, S. Sharma, J. Yang, R. Olivares  : DMRG
   Ulf Ekstrom                                   : XCFun DFT Library
   Mihaly Kallay                                 : mrcc  (arbitrary order and MRCC methods)
   Jiri Pittner, Ondrej Demel                    : Mk-CCSD
   Frank Weinhold                                : gennbo (NPA and NBO analysis)
   Christopher J. Cramer and Donald G. Truhlar   : smd solvation model
   Lars Goerigk                                  : TD-DFT with DH, B97 family of functionals
   V. Asgeirsson, H. Jonsson                     : NEB implementation
   FAccTs GmbH                                   : IRC, NEB, NEB-TS, DLPNO-Multilevel, CI-OPT
                                                   MM, QMMM, 2- and 3-layer-ONIOM, Crystal-QMMM,
                                                   LR-CPCM, SF, NACMEs, symmetry and pop. for TD-DFT,
                                                   nearIR, NL-DFT gradient (VV10), updates on ESD,
                                                   ML-optimized integration grids
   S Lehtola, MJT Oliveira, MAL Marques          : LibXC Library
   Liviu Ungur et al                             : ANISO software


 Your calculation uses the libint2 library for the computation of 2-el integrals
 For citations please refer to: http://libint.valeyev.net

 Your ORCA version has been built with support for libXC version: 5.1.0
 For citations please refer to: https://tddft.org/programs/libxc/

 This ORCA versions uses:
   CBLAS   interface :  Fast vector & matrix operations
   LAPACKE interface :  Fast linear algebra routines
   SCALAPACK package :  Parallel linear algebra routines
   Shared memory     :  Shared parallel matrices
   BLAS/LAPACK       :  OpenBLAS 0.3.15  USE64BITINT DYNAMIC_ARCH NO_AFFINITY SkylakeX SINGLE_THREADED
        Core in use  :  SkylakeX
   Copyright (c) 2011-2014, The OpenBLAS Project


Your calculation utilizes the atom-pairwise dispersion correction
with the Becke-Johnson damping scheme (D3BJ)
Cite in your paper:
S.Grimme, S.Ehrlich, L.Goerigk, J Comput Chem, (2011), 32, 1456–1465 
S.Grimme, J.Antony, S.Ehrlich and H.Krieg, J.Chem.Phys., 132, (2010), 154104 
   

================================================================================

----- Orbital basis set information -----
Your calculation utilizes the basis: def2-SVP
   F. Weigend and R. Ahlrichs, Phys. Chem. Chem. Phys. 7, 3297 (2005).

----- AuxJ basis set information -----
Your calculation utilizes the auxiliary basis: def2/J
   F. Weigend, Phys. Chem. Chem. Phys. 8, 1057 (2006).

================================================================================
                                        WARNINGS
                       Please study these warnings very carefully!
================================================================================


WARNING: your system is open-shell and RHF/RKS was chosen
  ===> : WILL SWITCH to UHF/UKS


INFO   : the flag for use of the SHARK integral package has been found!

================================================================================
                                       INPUT FILE
================================================================================
NAME = 9_1_orca.inp
|  1> ! EnGrad PBE0 RIJCOSX D3BJ def2-SVP def2/J 
|  2> %output 
|  3> xyzfile=True 
|  4> end 
|  5> %scf 
|  6> maxiter 250 
|  7> end
|  8> %output
|  9> Print[P_Hirshfeld] = 1
| 10> end
| 11> % maxcore
| 12> 4000
| 13> *xyz 0 2
| 14> O   -2.34449447  -0.74641772   1.44495091 
| 15> O   -0.56789576  -0.00277860   0.95222756 
| 16> C   -0.68117801   0.37057439  -0.37080203 
| 17> C    0.27397170   1.09713376   0.39888012 
| 18> C    1.58199223   0.43008755   0.22719652 
| 19> C    1.40867145  -0.67283200  -0.51558866 
| 20> C    0.01504702  -0.62282739  -1.22597514 
| 21> H   -2.31502070  -0.05348862   2.12588660 
| 22> H   -1.66672954   0.80635323  -0.65118085 
| 23> H    0.12165522   2.09390227   0.89621800 
| 24> H    2.49238977   0.68362901   0.78787597 
| 25> H    2.03250818  -1.47392487  -0.59745994 
| 26> H    0.18563791  -0.32710254  -2.26575832 
| 27> H   -0.53612345  -1.58225774  -1.20645163 
| 28> *
| 29> 
| 30>                          ****END OF INPUT****
================================================================================

                     *******************************
                     * Energy+Gradient Calculation *
                     *******************************

---------------------------------
CARTESIAN COORDINATES (ANGSTROEM)
---------------------------------
  O     -2.344494   -0.746418    1.444951
  O     -0.567896   -0.002779    0.952228
  C     -0.681178    0.370574   -0.370802
  C      0.273972    1.097134    0.398880
  C      1.581992    0.430088    0.227197
  C      1.408671   -0.672832   -0.515589
  C      0.015047   -0.622827   -1.225975
  H     -2.315021   -0.053489    2.125887
  H     -1.666730    0.806353   -0.651181
  H      0.121655    2.093902    0.896218
  H      2.492390    0.683629    0.787876
  H      2.032508   -1.473925   -0.597460
  H      0.185638   -0.327103   -2.265758
  H     -0.536123   -1.582258   -1.206452

----------------------------
CARTESIAN COORDINATES (A.U.)
----------------------------
  NO LB      ZA    FRAG     MASS         X           Y           Z
   0 O     8.0000    0    15.999   -4.430452   -1.410525    2.730561
   1 O     8.0000    0    15.999   -1.073167   -0.005251    1.799449
   2 C     6.0000    0    12.011   -1.287240    0.700284   -0.700714
   3 C     6.0000    0    12.011    0.517731    2.073282    0.753774
   4 C     6.0000    0    12.011    2.989532    0.812748    0.429339
   5 C     6.0000    0    12.011    2.662003   -1.271468   -0.974321
   6 C     6.0000    0    12.011    0.028435   -1.176973   -2.316757
   7 H     1.0000    0     1.008   -4.374755   -0.101079    4.017343
   8 H     1.0000    0     1.008   -3.149662    1.523787   -1.230553
   9 H     1.0000    0     1.008    0.229895    3.956902    1.693607
  10 H     1.0000    0     1.008    4.709934    1.291872    1.488870
  11 H     1.0000    0     1.008    3.840884   -2.785314   -1.129036
  12 H     1.0000    0     1.008    0.350805   -0.618134   -4.281663
  13 H     1.0000    0     1.008   -1.013126   -2.990034   -2.279863

--------------------------------
INTERNAL COORDINATES (ANGSTROEM)
--------------------------------
 O      0   0   0     0.000000000000     0.00000000     0.00000000
 O      1   0   0     1.987983505164     0.00000000     0.00000000
 C      2   1   0     1.379359496042   105.40167459     0.00000000
 C      3   2   1     1.425696355707    64.22110103   152.64237112
 C      4   3   2     1.478290773727   107.46577720    93.14471302
 C      5   4   3     1.340970339038   108.72898873   355.96980350
 C      3   2   1     1.484216101844   109.44858337   255.78607933
 H      1   2   3     0.971953113407    83.09976944   237.56013680
 H      3   2   1     1.113475324550   114.84377680    37.53284904
 H      4   3   2     1.124318789085   126.85900660   263.00982018
 H      5   4   3     1.098848669485   124.72950108   187.57657956
 H      6   5   4     1.018638777266   127.74803144   198.65238081
 H      7   3   2     1.094396409017   116.08383145   192.98789771
 H      7   3   2     1.106651097204   109.66232422    68.68876935

---------------------------
INTERNAL COORDINATES (A.U.)
---------------------------
 O      0   0   0     0.000000000000     0.00000000     0.00000000
 O      1   0   0     3.756744383512     0.00000000     0.00000000
 C      2   1   0     2.606611687744   105.40167459     0.00000000
 C      3   2   1     2.694175662416    64.22110103   152.64237112
 C      4   3   2     2.793564708646   107.46577720    93.14471302
 C      5   4   3     2.534066694493   108.72898873   355.96980350
 C      3   2   1     2.804761956041   109.44858337   255.78607933
 H      1   2   3     1.836725199350    83.09976944   237.56013680
 H      3   2   1     2.104163420279   114.84377680    37.53284904
 H      4   3   2     2.124654598593   126.85900660   263.00982018
 H      5   4   3     2.076523047951   124.72950108   187.57657956
 H      6   5   4     1.924948318426   127.74803144   198.65238081
 H      7   3   2     2.068109494989   116.08383145   192.98789771
 H      7   3   2     2.091267499520   109.66232422    68.68876935

---------------------
BASIS SET INFORMATION
---------------------
There are 3 groups of distinct atoms

 Group   1 Type O   : 7s4p1d contracted to 3s2p1d pattern {511/31/1}
 Group   2 Type C   : 7s4p1d contracted to 3s2p1d pattern {511/31/1}
 Group   3 Type H   : 4s1p contracted to 2s1p pattern {31/1}

Atom   0O    basis set group =>   1
Atom   1O    basis set group =>   1
Atom   2C    basis set group =>   2
Atom   3C    basis set group =>   2
Atom   4C    basis set group =>   2
Atom   5C    basis set group =>   2
Atom   6C    basis set group =>   2
Atom   7H    basis set group =>   3
Atom   8H    basis set group =>   3
Atom   9H    basis set group =>   3
Atom  10H    basis set group =>   3
Atom  11H    basis set group =>   3
Atom  12H    basis set group =>   3
Atom  13H    basis set group =>   3
---------------------------------
AUXILIARY/J BASIS SET INFORMATION
---------------------------------
There are 3 groups of distinct atoms

 Group   1 Type O   : 12s5p4d2f1g contracted to 6s4p3d1f1g pattern {711111/2111/211/2/1}
 Group   2 Type C   : 12s5p4d2f1g contracted to 6s4p3d1f1g pattern {711111/2111/211/2/1}
 Group   3 Type H   : 5s2p1d contracted to 3s1p1d pattern {311/2/1}

Atom   0O    basis set group =>   1
Atom   1O    basis set group =>   1
Atom   2C    basis set group =>   2
Atom   3C    basis set group =>   2
Atom   4C    basis set group =>   2
Atom   5C    basis set group =>   2
Atom   6C    basis set group =>   2
Atom   7H    basis set group =>   3
Atom   8H    basis set group =>   3
Atom   9H    basis set group =>   3
Atom  10H    basis set group =>   3
Atom  11H    basis set group =>   3
Atom  12H    basis set group =>   3
Atom  13H    basis set group =>   3
------------------------------------------------------------------------------
                           ORCA GTO INTEGRAL CALCULATION
                           -- RI-GTO INTEGRALS CHOSEN --
------------------------------------------------------------------------------
------------------------------------------------------------------------------
                   ___                                                        
                  /   \      - P O W E R E D   B Y -                         
                 /     \                                                     
                 |  |  |   _    _      __       _____    __    __             
                 |  |  |  | |  | |    /  \     |  _  \  |  |  /  |          
                  \  \/   | |  | |   /    \    | | | |  |  | /  /          
                 / \  \   | |__| |  /  /\  \   | |_| |  |  |/  /          
                |  |  |   |  __  | /  /__\  \  |    /   |      \           
                |  |  |   | |  | | |   __   |  |    \   |  |\   \          
                \     /   | |  | | |  |  |  |  | |\  \  |  | \   \       
                 \___/    |_|  |_| |__|  |__|  |_| \__\ |__|  \__/        
                                                                              
                      - O R C A' S   B I G   F R I E N D -                    
                                      &                                       
                       - I N T E G R A L  F E E D E R -                       
                                                                              
 v1 FN, 2020, v2 2021                                                         
------------------------------------------------------------------------------


Reading SHARK input file 9_1_orca.SHARKINP.tmp ... ok
----------------------
SHARK INTEGRAL PACKAGE
----------------------

Number of atoms                             ...     14
Number of basis functions                   ...    133
Number of shells                            ...     63
Maximum angular momentum                    ...      2
Integral batch strategy                     ... SHARK/LIBINT Hybrid
RI-J (if used) integral strategy            ... SPLIT-RIJ (Revised 2003 algorithm where possible)
Printlevel                                  ...      1
Contraction scheme used                     ... SEGMENTED contraction
Coulomb Range Separation                    ... NOT USED
Exchange Range Separation                   ... NOT USED
Finite Nucleus Model                        ... NOT USED
Auxiliary Coulomb fitting basis             ... AVAILABLE
   # of basis functions in Aux-J            ...    420
   # of shells in Aux-J                     ...    140
   Maximum angular momentum in Aux-J        ...      4
Auxiliary J/K fitting basis                 ... NOT available
Auxiliary Correlation fitting basis         ... NOT available
Auxiliary 'external' fitting basis          ... NOT available
Integral threshold                          ...     2.500000e-11
Primitive cut-off                           ...     2.500000e-12
Primitive pair pre-selection threshold      ...     2.500000e-12

Calculating pre-screening integrals         ... done (  0.0 sec) Dimension = 63
Organizing shell pair data                  ... done (  0.0 sec)
Shell pair information
Total number of shell pairs                 ...      2016
Shell pairs after pre-screening             ...      1952
Total number of primitive shell pairs       ...      7252
Primitive shell pairs kept                  ...      5349
          la=0 lb=0:    606 shell pairs
          la=1 lb=0:    712 shell pairs
          la=1 lb=1:    225 shell pairs
          la=2 lb=0:    237 shell pairs
          la=2 lb=1:    144 shell pairs
          la=2 lb=2:     28 shell pairs

Calculating one electron integrals          ... done (  0.0 sec)
Calculating RI/J V-Matrix + Cholesky decomp.... done (  0.0 sec)
Calculating Nuclear repulsion               ... done (  0.0 sec) ENN=    302.400704634538 Eh

SHARK setup successfully completed in   0.1 seconds

Maximum memory used throughout the entire GTOINT-calculation: 16.9 MB
-------------------------------------------------------------------------------
                                 ORCA SCF
-------------------------------------------------------------------------------

------------
SCF SETTINGS
------------
Hamiltonian:
 Density Functional     Method          .... DFT(GTOs)
 Exchange Functional    Exchange        .... PBE
   PBE kappa parameter   XKappa         ....  0.804000
   PBE mue parameter    XMuePBE         ....  0.219520
 Correlation Functional Correlation     .... PBE
   PBE beta parameter  CBetaPBE         ....  0.066725
 LDA part of GGA corr.  LDAOpt          .... PW91-LDA
 Gradients option       PostSCFGGA      .... off
 Hybrid DFT is turned on
   Fraction HF Exchange ScalHFX         ....  0.250000
   Scaling of DF-GGA-X  ScalDFX         ....  0.750000
   Scaling of DF-GGA-C  ScalDFC         ....  1.000000
   Scaling of DF-LDA-C  ScalLDAC        ....  1.000000
   Perturbative correction              ....  0.000000
   Density functional embedding theory  .... OFF
   NL short-range parameter             ....  6.900000
 RI-approximation to the Coulomb term is turned on
   Number of AuxJ basis functions       .... 420
   RIJ-COSX (HFX calculated with COS-X)).... on


General Settings:
 Integral files         IntName         .... 9_1_orca
 Hartree-Fock type      HFTyp           .... UHF
 Total Charge           Charge          ....    0
 Multiplicity           Mult            ....    2
 Number of Electrons    NEL             ....   53
 Basis Dimension        Dim             ....  133
 Nuclear Repulsion      ENuc            ....    302.4007046345 Eh

Convergence Acceleration:
 DIIS                   CNVDIIS         .... on
   Start iteration      DIISMaxIt       ....    12
   Startup error        DIISStart       ....  0.200000
   # of expansion vecs  DIISMaxEq       ....     5
   Bias factor          DIISBfac        ....   1.050
   Max. coefficient     DIISMaxC        ....  10.000
 Trust-Rad. Augm. Hess. CNVTRAH         .... auto
   Auto Start mean grad. ratio tolernc. ....  1.125000
   Auto Start start iteration           ....    20
   Auto Start num. interpolation iter.  ....    10
   Max. Number of Micro iterations      ....    16
   Max. Number of Macro iterations      .... Maxiter - #DIIS iter
   Number of Davidson start vectors     ....     2
   Converg. threshold I  (grad. norm)   ....   1.000e-05
   Converg. threshold II (energy diff.) ....   1.000e-08
   Grad. Scal. Fac. for Micro threshold ....   0.100
   Minimum threshold for Micro iter.    ....   0.010
   NR start threshold (gradient norm)   ....   0.001
   Initial trust radius                 ....   0.400
   Minimum AH scaling param. (alpha)    ....   1.000
   Maximum AH scaling param. (alpha)    .... 1000.000
   Orbital update algorithm             .... Taylor
   White noise on init. David. guess    .... on
   Maximum white noise                  ....   0.010
   Quad. conv. algorithm                .... NR
 SOSCF                  CNVSOSCF        .... off
 Level Shifting         CNVShift        .... on
   Level shift para.    LevelShift      ....    0.2500
   Turn off err/grad.   ShiftErr        ....    0.0010
 Zerner damping         CNVZerner       .... off
 Static damping         CNVDamp         .... on
   Fraction old density DampFac         ....    0.7000
   Max. Damping (<1)    DampMax         ....    0.9800
   Min. Damping (>=0)   DampMin         ....    0.0000
   Turn off err/grad.   DampErr         ....    0.1000
 Fernandez-Rico         CNVRico         .... off

SCF Procedure:
 Maximum # iterations   MaxIter         ....   250
 SCF integral mode      SCFMode         .... Direct
   Integral package                     .... SHARK and LIBINT hybrid scheme
 Reset frequency        DirectResetFreq ....    20
 Integral Threshold     Thresh          ....  2.500e-11 Eh
 Primitive CutOff       TCut            ....  2.500e-12 Eh

Convergence Tolerance:
 Convergence Check Mode ConvCheckMode   .... Total+1el-Energy
 Convergence forced     ConvForced      .... 0
 Energy Change          TolE            ....  1.000e-08 Eh
 1-El. energy change                    ....  1.000e-05 Eh
 DIIS Error             TolErr          ....  5.000e-07


Diagonalization of the overlap matrix:
Smallest eigenvalue                        ... 6.596e-04
Time for diagonalization                   ...    0.002 sec
Threshold for overlap eigenvalues          ... 1.000e-08
Number of eigenvalues below threshold      ... 0
Time for construction of square roots      ...    0.001 sec
Total time needed                          ...    0.003 sec

Time for model grid setup =    0.120 sec

------------------------------
INITIAL GUESS: MODEL POTENTIAL
------------------------------
Loading Hartree-Fock densities                     ... done
Calculating cut-offs                               ... done
Initializing the effective Hamiltonian             ... done
Setting up the integral package (SHARK)            ... done
Starting the Coulomb interaction                   ... done (   0.1 sec)
Reading the grid                                   ... done
Mapping shells                                     ... done
Starting the XC term evaluation                    ... done (   0.1 sec)
  promolecular density results
     # of electrons  =     52.997056655
     EX              =    -43.898357276
     EC              =     -1.758065410
     EX+EC           =    -45.656422686
Transforming the Hamiltonian                       ... done (   0.0 sec)
Diagonalizing the Hamiltonian                      ... done (   0.0 sec)
Back transforming the eigenvectors                 ... done (   0.0 sec)
Now organizing SCF variables                       ... done
                      ------------------
                      INITIAL GUESS DONE (   0.3 sec)
                      ------------------
-------------------
DFT GRID GENERATION
-------------------

General Integration Accuracy     IntAcc      ... 4.388
Radial Grid Type                 RadialGrid  ... OptM3 with GC (2021)
Angular Grid (max. ang.)         AngularGrid ... 4 (Lebedev-302)
Angular grid pruning method      GridPruning ... 4 (adaptive)
Weight generation scheme         WeightScheme... Becke
Basis function cutoff            BFCut       ... 1.0000e-11
Integration weight cutoff        WCut        ... 1.0000e-14
Angular grids for H and He will be reduced by one unit
Partially contracted basis set               ... off
Rotationally invariant grid construction     ... off

Total number of grid points                  ...    64879
Total number of batches                      ...     1021
Average number of points per batch           ...       63
Average number of grid points per atom       ...     4634
Time for grid setup =    0.491 sec

--------------------
COSX GRID GENERATION
--------------------

GRIDX 1
-------
General Integration Accuracy     IntAcc      ... 3.816
Radial Grid Type                 RadialGrid  ... OptM3 with GC (2021)
Angular Grid (max. ang.)         AngularGrid ... 1 (Lebedev-50)
Angular grid pruning method      GridPruning ... 4 (adaptive)
Weight generation scheme         WeightScheme... Becke
Basis function cutoff            BFCut       ... 1.0000e-11
Integration weight cutoff        WCut        ... 1.0000e-14
Angular grids for H and He will be reduced by one unit
Partially contracted basis set               ... on
Rotationally invariant grid construction     ... off

Total number of grid points                  ...     8289
Total number of batches                      ...      135
Average number of points per batch           ...       61
Average number of grid points per atom       ...      592
UseSFitting                                  ... on

GRIDX 2
-------
General Integration Accuracy     IntAcc      ... 4.020
Radial Grid Type                 RadialGrid  ... OptM3 with GC (2021)
Angular Grid (max. ang.)         AngularGrid ... 2 (Lebedev-110)
Angular grid pruning method      GridPruning ... 4 (adaptive)
Weight generation scheme         WeightScheme... Becke
Basis function cutoff            BFCut       ... 1.0000e-11
Integration weight cutoff        WCut        ... 1.0000e-14
Angular grids for H and He will be reduced by one unit
Partially contracted basis set               ... on
Rotationally invariant grid construction     ... off

Total number of grid points                  ...    18022
Total number of batches                      ...      288
Average number of points per batch           ...       62
Average number of grid points per atom       ...     1287
UseSFitting                                  ... on

GRIDX 3
-------
General Integration Accuracy     IntAcc      ... 4.338
Radial Grid Type                 RadialGrid  ... OptM3 with GC (2021)
Angular Grid (max. ang.)         AngularGrid ... 3 (Lebedev-194)
Angular grid pruning method      GridPruning ... 4 (adaptive)
Weight generation scheme         WeightScheme... Becke
Basis function cutoff            BFCut       ... 1.0000e-11
Integration weight cutoff        WCut        ... 1.0000e-14
Angular grids for H and He will be reduced by one unit
Partially contracted basis set               ... on
Rotationally invariant grid construction     ... off

Total number of grid points                  ...    39647
Total number of batches                      ...      628
Average number of points per batch           ...       63
Average number of grid points per atom       ...     2832
UseSFitting                                  ... on

Time for X-Grid setup             =    0.561 sec

--------------
SCF ITERATIONS
--------------
ITER       Energy         Delta-E        Max-DP      RMS-DP      [F,P]     Damp
               ***  Starting incremental Fock matrix formation  ***
  0   -344.1308283257   0.000000000000 0.05556543  0.00144287  0.1553111 0.7000
  1   -344.2264371837  -0.095608857959 0.04071719  0.00096816  0.0582196 0.7000
                               ***Turning on DIIS***
  2   -344.2646494687  -0.038212284959 0.08281085  0.00168987  0.0194334 0.0000
  3   -344.3330786902  -0.068429221581 0.03354789  0.00082239  0.0536429 0.0000
  4   -344.3489878482  -0.015909157988 0.01152868  0.00035156  0.0097368 0.0000
  5   -344.3510390202  -0.002051171945 0.00924714  0.00023977  0.0080524 0.0000
  6   -344.3520308188  -0.000991798609 0.00467906  0.00012455  0.0046290 0.0000
  7   -344.3523761498  -0.000345331049 0.00264697  0.00007313  0.0023702 0.0000
  8   -344.3524968645  -0.000120714721 0.00188499  0.00004487  0.0017993 0.0000
  9   -344.3525492413  -0.000052376789 0.00299281  0.00006572  0.0006917 0.0000
               *** Restarting incremental Fock matrix formation ***
                                   *** Resetting DIIS ***
 10   -344.3525143374   0.000034903949 0.00130636  0.00002214  0.0005165 0.0000
 11   -344.3525206238  -0.000006286420 0.00041762  0.00000903  0.0004242 0.0000
 12   -344.3525233608  -0.000002736977 0.00162124  0.00002324  0.0003864 0.0000
 13   -344.3525291190  -0.000005758178 0.00147875  0.00002054  0.0002692 0.0000
 14   -344.3525326235  -0.000003504496 0.00146465  0.00002041  0.0001872 0.0000
 15   -344.3525346486  -0.000002025131 0.00062163  0.00000833  0.0001029 0.0000
 16   -344.3525350726  -0.000000423967 0.00031235  0.00000428  0.0000601 0.0000
 17   -344.3525352043  -0.000000131771 0.00018138  0.00000267  0.0000360 0.0000
 18   -344.3525352653  -0.000000060937 0.00017227  0.00000231  0.0000211 0.0000
 19   -344.3525352953  -0.000000030008 0.00012060  0.00000182  0.0000172 0.0000
 20   -344.3525353074  -0.000000012177 0.00006035  0.00000099  0.0000126 0.0000
 21   -344.3525353123  -0.000000004857 0.00003682  0.00000072  0.0000093 0.0000
 22   -344.3525353168  -0.000000004508 0.00001565  0.00000038  0.0000057 0.0000
 23   -344.3525353139   0.000000002898 0.00001051  0.00000024  0.0000057 0.0000
 24   -344.3525353182  -0.000000004283 0.00000703  0.00000017  0.0000055 0.0000
 25   -344.3525353213  -0.000000003064 0.00000959  0.00000019  0.0000049 0.0000
 26   -344.3525353191   0.000000002159 0.00001033  0.00000016  0.0000043 0.0000
                 **** Energy Check signals convergence ****

               *****************************************************
               *                     SUCCESS                       *
               *           SCF CONVERGED AFTER  27 CYCLES          *
               *****************************************************

Old exchange energy                            =    -11.196510293 Eh
New exchange energy                            =    -11.196458888 Eh
Exchange energy change after final integration =      0.000051405 Eh
Total energy after final integration           =   -344.352483917 Eh
Final COS-X integration done in                =     5.199 sec

----------------
TOTAL SCF ENERGY
----------------

Total Energy       :         -344.35248392 Eh           -9370.30746 eV

Components:
Nuclear Repulsion  :          302.40070463 Eh            8228.74151 eV
Electronic Energy  :         -646.75318855 Eh          -17599.04898 eV
One Electron Energy:        -1068.08880266 Eh          -29064.17391 eV
Two Electron Energy:          421.33561411 Eh           11465.12494 eV
Max COSX asymmetry :            0.00000085 Eh               0.00002 eV

Virial components:
Potential Energy   :         -686.12200329 Eh          -18670.32889 eV
Kinetic Energy     :          341.76951938 Eh            9300.02143 eV
Virial Ratio       :            2.00755762


DFT components:
N(Alpha)           :       27.000013519543 electrons
N(Beta)            :       26.000012996412 electrons
N(Total)           :       53.000026515955 electrons
E(X)               :      -33.505733170388 Eh       
E(C)               :       -1.773008265484 Eh       
E(XC)              :      -35.278741435872 Eh       
DFET-embed. en.    :        0.000000000000 Eh       

---------------
SCF CONVERGENCE
---------------

  Last Energy change         ...   -2.2205e-09  Tolerance :   1.0000e-08
  Last MAX-Density change    ...    0.0000e+00  Tolerance :   1.0000e-07
  Last RMS-Density change    ...    0.0000e+00  Tolerance :   5.0000e-09
  Last DIIS Error            ...    3.7372e-06  Tolerance :   5.0000e-07

             **** THE GBW FILE WAS UPDATED (9_1_orca.gbw) ****
             **** DENSITY 9_1_orca.scfp WAS UPDATED ****
             **** ENERGY FILE WAS UPDATED (9_1_orca.en.tmp) ****
----------------------
UHF SPIN CONTAMINATION
----------------------

Warning: in a DFT calculation there is little theoretical justification to 
         calculate <S**2> as in Hartree-Fock theory. We will do it anyways
         but you should keep in mind that the values have only limited relevance

Expectation value of <S**2>     :     0.755039
Ideal value S*(S+1) for S=0.5   :     0.750000
Deviation                       :     0.005039

             **** THE GBW FILE WAS UPDATED (9_1_orca.gbw) ****
             **** DENSITY 9_1_orca.scfp WAS UPDATED ****
----------------
ORBITAL ENERGIES
----------------
                 SPIN UP ORBITALS
  NO   OCC          E(Eh)            E(eV) 
   0   1.0000     -19.231401      -523.3130 
   1   1.0000     -19.203484      -522.5534 
   2   1.0000     -10.296892      -280.1927 
   3   1.0000     -10.288861      -279.9741 
   4   1.0000     -10.243917      -278.7511 
   5   1.0000     -10.243517      -278.7403 
   6   1.0000     -10.242109      -278.7020 
   7   1.0000      -1.122810       -30.5532 
   8   1.0000      -0.962903       -26.2019 
   9   1.0000      -0.842509       -22.9258 
  10   1.0000      -0.744080       -20.2474 
  11   1.0000      -0.694263       -18.8919 
  12   1.0000      -0.595993       -16.2178 
  13   1.0000      -0.577556       -15.7161 
  14   1.0000      -0.561760       -15.2863 
  15   1.0000      -0.482032       -13.1168 
  16   1.0000      -0.470956       -12.8154 
  17   1.0000      -0.435259       -11.8440 
  18   1.0000      -0.423500       -11.5240 
  19   1.0000      -0.419363       -11.4114 
  20   1.0000      -0.401421       -10.9232 
  21   1.0000      -0.370201       -10.0737 
  22   1.0000      -0.362659        -9.8684 
  23   1.0000      -0.321381        -8.7452 
  24   1.0000      -0.302150        -8.2219 
  25   1.0000      -0.282466        -7.6863 
  26   1.0000      -0.248305        -6.7567 
  27   0.0000      -0.008311        -0.2261 
  28   0.0000       0.070678         1.9232 
  29   0.0000       0.105935         2.8826 
  30   0.0000       0.106730         2.9043 
  31   0.0000       0.117573         3.1993 
  32   0.0000       0.123648         3.3646 
  33   0.0000       0.138355         3.7648 
  34   0.0000       0.141236         3.8432 
  35   0.0000       0.144907         3.9431 
  36   0.0000       0.172476         4.6933 
  37   0.0000       0.195021         5.3068 
  38   0.0000       0.225883         6.1466 
  39   0.0000       0.307631         8.3711 
  40   0.0000       0.321164         8.7393 
  41   0.0000       0.392364        10.6768 
  42   0.0000       0.403834        10.9889 
  43   0.0000       0.452147        12.3035 
  44   0.0000       0.460660        12.5352 
  45   0.0000       0.487491        13.2653 
  46   0.0000       0.503075        13.6894 
  47   0.0000       0.516223        14.0471 
  48   0.0000       0.551422        15.0050 
  49   0.0000       0.566107        15.4045 
  50   0.0000       0.575603        15.6630 
  51   0.0000       0.600651        16.3446 
  52   0.0000       0.620313        16.8796 
  53   0.0000       0.627026        17.0622 
  54   0.0000       0.649618        17.6770 
  55   0.0000       0.664482        18.0815 
  56   0.0000       0.667620        18.1669 
  57   0.0000       0.689312        18.7571 
  58   0.0000       0.690816        18.7981 
  59   0.0000       0.701492        19.0886 
  60   0.0000       0.718674        19.5561 
  61   0.0000       0.734329        19.9821 
  62   0.0000       0.760996        20.7078 
  63   0.0000       0.788563        21.4579 
  64   0.0000       0.834416        22.7056 
  65   0.0000       0.917454        24.9652 
  66   0.0000       0.927499        25.2385 
  67   0.0000       0.955739        26.0070 
  68   0.0000       0.996852        27.1257 
  69   0.0000       1.030285        28.0355 
  70   0.0000       1.052042        28.6275 
  71   0.0000       1.078734        29.3538 
  72   0.0000       1.103425        30.0257 
  73   0.0000       1.152968        31.3739 
  74   0.0000       1.213796        33.0291 
  75   0.0000       1.237900        33.6850 
  76   0.0000       1.286398        35.0047 
  77   0.0000       1.356050        36.9000 
  78   0.0000       1.469750        39.9939 
  79   0.0000       1.486835        40.4589 
  80   0.0000       1.489288        40.5256 
  81   0.0000       1.544120        42.0176 
  82   0.0000       1.551909        42.2296 
  83   0.0000       1.596453        43.4417 
  84   0.0000       1.616662        43.9916 
  85   0.0000       1.652501        44.9668 
  86   0.0000       1.662336        45.2345 
  87   0.0000       1.679971        45.7143 
  88   0.0000       1.724042        46.9136 
  89   0.0000       1.756671        47.8014 
  90   0.0000       1.775116        48.3034 
  91   0.0000       1.785102        48.5751 
  92   0.0000       1.822827        49.6016 
  93   0.0000       1.847052        50.2608 
  94   0.0000       1.865064        50.7510 
  95   0.0000       1.883356        51.2487 
  96   0.0000       1.926699        52.4282 
  97   0.0000       1.962983        53.4155 
  98   0.0000       2.009880        54.6916 
  99   0.0000       2.021586        55.0101 
 100   0.0000       2.044701        55.6391 
 101   0.0000       2.061442        56.0947 
 102   0.0000       2.090018        56.8723 
 103   0.0000       2.168796        59.0159 
 104   0.0000       2.183922        59.4275 
 105   0.0000       2.242699        61.0269 
 106   0.0000       2.280198        62.0473 
 107   0.0000       2.286554        62.2203 
 108   0.0000       2.294842        62.4458 
 109   0.0000       2.382302        64.8257 
 110   0.0000       2.441292        66.4309 
 111   0.0000       2.516594        68.4800 
 112   0.0000       2.556496        69.5658 
 113   0.0000       2.590301        70.4857 
 114   0.0000       2.651243        72.1440 
 115   0.0000       2.667569        72.5882 
 116   0.0000       2.691295        73.2338 
 117   0.0000       2.748513        74.7908 
 118   0.0000       2.765320        75.2482 
 119   0.0000       2.804746        76.3210 
 120   0.0000       2.833400        77.1007 
 121   0.0000       2.888894        78.6108 
 122   0.0000       2.916435        79.3602 
 123   0.0000       2.936162        79.8970 
 124   0.0000       3.012536        81.9753 
 125   0.0000       3.025507        82.3282 
 126   0.0000       3.080923        83.8362 
 127   0.0000       3.126183        85.0678 
 128   0.0000       3.187558        86.7379 
 129   0.0000       3.326719        90.5246 
 130   0.0000       3.446662        93.7884 
 131   0.0000       3.473627        94.5222 
 132   0.0000       3.751825       102.0923 

                 SPIN DOWN ORBITALS
  NO   OCC          E(Eh)            E(eV) 
   0   1.0000     -19.227747      -523.2136 
   1   1.0000     -19.178176      -521.8647 
   2   1.0000     -10.295759      -280.1618 
   3   1.0000     -10.289099      -279.9806 
   4   1.0000     -10.243963      -278.7524 
   5   1.0000     -10.243030      -278.7270 
   6   1.0000     -10.242149      -278.7030 
   7   1.0000      -1.118067       -30.4242 
   8   1.0000      -0.897924       -24.4338 
   9   1.0000      -0.839129       -22.8339 
  10   1.0000      -0.743862       -20.2415 
  11   1.0000      -0.689722       -18.7683 
  12   1.0000      -0.594882       -16.1876 
  13   1.0000      -0.576227       -15.6799 
  14   1.0000      -0.558057       -15.1855 
  15   1.0000      -0.473760       -12.8917 
  16   1.0000      -0.467630       -12.7249 
  17   1.0000      -0.427356       -11.6289 
  18   1.0000      -0.418584       -11.3902 
  19   1.0000      -0.403184       -10.9712 
  20   1.0000      -0.396351       -10.7853 
  21   1.0000      -0.366260        -9.9664 
  22   1.0000      -0.346146        -9.4191 
  23   1.0000      -0.298649        -8.1267 
  24   1.0000      -0.263849        -7.1797 
  25   1.0000      -0.257678        -7.0118 
  26   0.0000      -0.068665        -1.8685 
  27   0.0000       0.000045         0.0012 
  28   0.0000       0.072217         1.9651 
  29   0.0000       0.106539         2.8991 
  30   0.0000       0.110171         2.9979 
  31   0.0000       0.119737         3.2582 
  32   0.0000       0.126003         3.4287 
  33   0.0000       0.138777         3.7763 
  34   0.0000       0.143694         3.9101 
  35   0.0000       0.146765         3.9937 
  36   0.0000       0.174278         4.7423 
  37   0.0000       0.197159         5.3650 
  38   0.0000       0.226779         6.1710 
  39   0.0000       0.308357         8.3908 
  40   0.0000       0.321715         8.7543 
  41   0.0000       0.393334        10.7032 
  42   0.0000       0.403746        10.9865 
  43   0.0000       0.453542        12.3415 
  44   0.0000       0.461765        12.5653 
  45   0.0000       0.488944        13.3049 
  46   0.0000       0.504839        13.7374 
  47   0.0000       0.518544        14.1103 
  48   0.0000       0.553446        15.0600 
  49   0.0000       0.567129        15.4324 
  50   0.0000       0.578901        15.7527 
  51   0.0000       0.601032        16.3549 
  52   0.0000       0.620917        16.8960 
  53   0.0000       0.630009        17.1434 
  54   0.0000       0.651326        17.7235 
  55   0.0000       0.668210        18.1829 
  56   0.0000       0.671587        18.2748 
  57   0.0000       0.689730        18.7685 
  58   0.0000       0.691795        18.8247 
  59   0.0000       0.702181        19.1073 
  60   0.0000       0.719058        19.5666 
  61   0.0000       0.735214        20.0062 
  62   0.0000       0.762022        20.7357 
  63   0.0000       0.789304        21.4781 
  64   0.0000       0.834911        22.7191 
  65   0.0000       0.919405        25.0183 
  66   0.0000       0.941923        25.6310 
  67   0.0000       0.994338        27.0573 
  68   0.0000       1.006985        27.4015 
  69   0.0000       1.039646        28.2902 
  70   0.0000       1.058927        28.8149 
  71   0.0000       1.101888        29.9839 
  72   0.0000       1.112139        30.2628 
  73   0.0000       1.161388        31.6030 
  74   0.0000       1.216821        33.1114 
  75   0.0000       1.245024        33.8788 
  76   0.0000       1.302682        35.4478 
  77   0.0000       1.357260        36.9329 
  78   0.0000       1.469779        39.9947 
  79   0.0000       1.488635        40.5078 
  80   0.0000       1.495633        40.6982 
  81   0.0000       1.548046        42.1245 
  82   0.0000       1.559319        42.4312 
  83   0.0000       1.598794        43.5054 
  84   0.0000       1.622135        44.1405 
  85   0.0000       1.654525        45.0219 
  86   0.0000       1.664892        45.3040 
  87   0.0000       1.681114        45.7454 
  88   0.0000       1.725671        46.9579 
  89   0.0000       1.757897        47.8348 
  90   0.0000       1.776108        48.3304 
  91   0.0000       1.787603        48.6432 
  92   0.0000       1.825154        49.6650 
  93   0.0000       1.848065        50.2884 
  94   0.0000       1.866457        50.7889 
  95   0.0000       1.884354        51.2759 
  96   0.0000       1.928124        52.4669 
  97   0.0000       1.964279        53.4507 
  98   0.0000       2.010584        54.7108 
  99   0.0000       2.022791        55.0429 
 100   0.0000       2.045756        55.6678 
 101   0.0000       2.062873        56.1336 
 102   0.0000       2.090841        56.8947 
 103   0.0000       2.168957        59.0203 
 104   0.0000       2.185093        59.4594 
 105   0.0000       2.257432        61.4279 
 106   0.0000       2.282034        62.0973 
 107   0.0000       2.288429        62.2713 
 108   0.0000       2.296298        62.4855 
 109   0.0000       2.383830        64.8673 
 110   0.0000       2.441825        66.4454 
 111   0.0000       2.517411        68.5022 
 112   0.0000       2.557709        69.5988 
 113   0.0000       2.592924        70.5571 
 114   0.0000       2.652169        72.1692 
 115   0.0000       2.688029        73.1450 
 116   0.0000       2.744087        74.6704 
 117   0.0000       2.758377        75.0592 
 118   0.0000       2.798373        76.1476 
 119   0.0000       2.811429        76.5029 
 120   0.0000       2.835220        77.1503 
 121   0.0000       2.893620        78.7394 
 122   0.0000       2.928278        79.6825 
 123   0.0000       2.971957        80.8711 
 124   0.0000       3.023909        82.2847 
 125   0.0000       3.070126        83.5424 
 126   0.0000       3.088402        84.0397 
 127   0.0000       3.133001        85.2533 
 128   0.0000       3.189972        86.8036 
 129   0.0000       3.331677        90.6596 
 130   0.0000       3.448182        93.8298 
 131   0.0000       3.476712        94.6062 
 132   0.0000       3.774111       102.6988 

                    ********************************
                    * MULLIKEN POPULATION ANALYSIS *
                    ********************************

--------------------------------------------
MULLIKEN ATOMIC CHARGES AND SPIN POPULATIONS
--------------------------------------------
   0 O :   -0.243488    0.903862
   1 O :   -0.326355    0.055932
   2 C :    0.054903   -0.012288
   3 C :    0.043783    0.053351
   4 C :    0.021601   -0.044179
   5 C :   -0.085916    0.070649
   6 C :    0.071573   -0.004247
   7 H :    0.167965   -0.022418
   8 H :    0.052930    0.002104
   9 H :    0.064080   -0.002394
  10 H :    0.037798    0.001898
  11 H :    0.004731   -0.003224
  12 H :    0.063386    0.000606
  13 H :    0.073008    0.000347
Sum of atomic charges         :    0.0000000
Sum of atomic spin populations:    1.0000000

-----------------------------------------------------
MULLIKEN REDUCED ORBITAL CHARGES AND SPIN POPULATIONS
-----------------------------------------------------
CHARGE
  0 O s       :     3.861763  s :     3.861763
      pz      :     1.549605  p :     4.374632
      px      :     1.252870
      py      :     1.572157
      dz2     :     0.000917  d :     0.007094
      dxz     :     0.000393
      dyz     :     0.003639
      dx2y2   :     0.001511
      dxy     :     0.000634
  1 O s       :     3.878366  s :     3.878366
      pz      :     1.329093  p :     4.427630
      px      :     1.588089
      py      :     1.510448
      dz2     :     0.006491  d :     0.020359
      dxz     :     0.003556
      dyz     :     0.004962
      dx2y2   :     0.002157
      dxy     :     0.003193
  2 C s       :     3.148282  s :     3.148282
      pz      :     0.765178  p :     2.714242
      px      :     0.987592
      py      :     0.961472
      dz2     :     0.025223  d :     0.082573
      dxz     :     0.018354
      dyz     :     0.020302
      dx2y2   :     0.007286
      dxy     :     0.011409
  3 C s       :     3.203061  s :     3.203061
      pz      :     0.938482  p :     2.687689
      px      :     0.912480
      py      :     0.836726
      dz2     :     0.007362  d :     0.065467
      dxz     :     0.012154
      dyz     :     0.012171
      dx2y2   :     0.015737
      dxy     :     0.018042
  4 C s       :     3.152334  s :     3.152334
      pz      :     0.982376  p :     2.791365
      px      :     0.853028
      py      :     0.955961
      dz2     :     0.005382  d :     0.034699
      dxz     :     0.007045
      dyz     :     0.005073
      dx2y2   :     0.007912
      dxy     :     0.009287
  5 C s       :     3.219983  s :     3.219983
      pz      :     0.965420  p :     2.831330
      px      :     0.954102
      py      :     0.911808
      dz2     :     0.006892  d :     0.034603
      dxz     :     0.005031
      dyz     :     0.005216
      dx2y2   :     0.007636
      dxy     :     0.009828
  6 C s       :     2.970591  s :     2.970591
      pz      :     0.967664  p :     2.924140
      px      :     0.935624
      py      :     1.020853
      dz2     :     0.008030  d :     0.033697
      dxz     :     0.006473
      dyz     :     0.005130
      dx2y2   :     0.006598
      dxy     :     0.007466
  7 H s       :     0.765122  s :     0.765122
      pz      :     0.025902  p :     0.066913
      px      :     0.013023
      py      :     0.027987
  8 H s       :     0.925968  s :     0.925968
      pz      :     0.002651  p :     0.021101
      px      :     0.013334
      py      :     0.005116
  9 H s       :     0.914482  s :     0.914482
      pz      :     0.006122  p :     0.021438
      px      :     0.002504
      py      :     0.012813
 10 H s       :     0.938471  s :     0.938471
      pz      :     0.007662  p :     0.023731
      px      :     0.011736
      py      :     0.004333
 11 H s       :     0.967994  s :     0.967994
      pz      :     0.005629  p :     0.027275
      px      :     0.009035
      py      :     0.012611
 12 H s       :     0.913051  s :     0.913051
      pz      :     0.013621  p :     0.023564
      px      :     0.004840
      py      :     0.005103
 13 H s       :     0.903989  s :     0.903989
      pz      :     0.004295  p :     0.023003
      px      :     0.006516
      py      :     0.012191

SPIN
  0 O s       :     0.011334  s :     0.011334
      pz      :     0.094641  p :     0.892245
      px      :     0.705638
      py      :     0.091965
      dz2     :    -0.000056  d :     0.000284
      dxz     :     0.000258
      dyz     :    -0.000008
      dx2y2   :     0.000042
      dxy     :     0.000048
  1 O s       :     0.016167  s :     0.016167
      pz      :     0.009302  p :     0.038754
      px      :     0.030805
      py      :    -0.001353
      dz2     :    -0.000029  d :     0.001011
      dxz     :     0.000318
      dyz     :     0.000028
      dx2y2   :     0.000074
      dxy     :     0.000620
  2 C s       :    -0.002936  s :    -0.002936
      pz      :    -0.005208  p :    -0.010082
      px      :    -0.003188
      py      :    -0.001686
      dz2     :     0.000001  d :     0.000729
      dxz     :     0.000764
      dyz     :    -0.000049
      dx2y2   :     0.000051
      dxy     :    -0.000037
  3 C s       :     0.006012  s :     0.006012
      pz      :     0.026123  p :     0.047405
      px      :     0.007440
      py      :     0.013842
      dz2     :    -0.000050  d :    -0.000066
      dxz     :    -0.000266
      dyz     :    -0.000077
      dx2y2   :     0.000388
      dxy     :    -0.000061
  4 C s       :    -0.007300  s :    -0.007300
      pz      :    -0.023131  p :    -0.037706
      px      :    -0.001721
      py      :    -0.012854
      dz2     :     0.000225  d :     0.000828
      dxz     :     0.000184
      dyz     :     0.000143
      dx2y2   :     0.000195
      dxy     :     0.000080
  5 C s       :     0.009418  s :     0.009418
      pz      :     0.036805  p :     0.061574
      px      :     0.010582
      py      :     0.014187
      dz2     :    -0.000127  d :    -0.000342
      dxz     :    -0.000046
      dyz     :    -0.000100
      dx2y2   :    -0.000052
      dxy     :    -0.000017
  6 C s       :    -0.001415  s :    -0.001415
      pz      :    -0.000659  p :    -0.003013
      px      :    -0.002354
      py      :    -0.000000
      dz2     :     0.000076  d :     0.000182
      dxz     :     0.000039
      dyz     :     0.000023
      dx2y2   :     0.000015
      dxy     :     0.000029
  7 H s       :    -0.027702  s :    -0.027702
      pz      :     0.000835  p :     0.005284
      px      :     0.004525
      py      :    -0.000075
  8 H s       :     0.002158  s :     0.002158
      pz      :    -0.000028  p :    -0.000054
      px      :    -0.000025
      py      :    -0.000001
  9 H s       :    -0.002595  s :    -0.002595
      pz      :     0.000104  p :     0.000201
      px      :     0.000004
      py      :     0.000093
 10 H s       :     0.002085  s :     0.002085
      pz      :    -0.000094  p :    -0.000187
      px      :    -0.000026
      py      :    -0.000067
 11 H s       :    -0.003674  s :    -0.003674
      pz      :     0.000265  p :     0.000450
      px      :     0.000101
      py      :     0.000084
 12 H s       :     0.000589  s :     0.000589
      pz      :    -0.000009  p :     0.000017
      px      :     0.000023
      py      :     0.000003
 13 H s       :     0.000357  s :     0.000357
      pz      :    -0.000004  p :    -0.000010
      px      :    -0.000006
      py      :    -0.000000


                     *******************************
                     * LOEWDIN POPULATION ANALYSIS *
                     *******************************

-------------------------------------------
LOEWDIN ATOMIC CHARGES AND SPIN POPULATIONS
-------------------------------------------
   0 O :   -0.148706    0.859824
   1 O :   -0.122573    0.074442
   2 C :    0.040169   -0.005091
   3 C :    0.054958    0.041888
   4 C :   -0.050354   -0.029216
   5 C :    0.017726    0.054024
   6 C :   -0.041970   -0.001133
   7 H :    0.048070    0.002833
   8 H :    0.028024    0.001088
   9 H :    0.037718   -0.000379
  10 H :    0.034038    0.000204
  11 H :    0.011900    0.000468
  12 H :    0.041002    0.000774
  13 H :    0.049998    0.000273

----------------------------------------------------
LOEWDIN REDUCED ORBITAL CHARGES AND SPIN POPULATIONS
----------------------------------------------------
CHARGE
  0 O s       :     3.684599  s :     3.684599
      pz      :     1.587646  p :     4.451371
      px      :     1.248635
      py      :     1.615090
      dz2     :     0.001041  d :     0.012736
      dxz     :     0.000367
      dyz     :     0.007782
      dx2y2   :     0.002716
      dxy     :     0.000830
  1 O s       :     3.562409  s :     3.562409
      pz      :     1.410724  p :     4.525220
      px      :     1.568427
      py      :     1.546069
      dz2     :     0.011045  d :     0.034944
      dxz     :     0.005517
      dyz     :     0.009376
      dx2y2   :     0.003092
      dxy     :     0.005914
  2 C s       :     2.837624  s :     2.837624
      pz      :     0.874591  p :     2.936941
      px      :     1.048056
      py      :     1.014294
      dz2     :     0.052734  d :     0.185266
      dxz     :     0.042452
      dyz     :     0.046705
      dx2y2   :     0.015831
      dxy     :     0.027543
  3 C s       :     2.871242  s :     2.871242
      pz      :     1.000082  p :     2.928420
      px      :     0.981746
      py      :     0.946592
      dz2     :     0.016139  d :     0.145380
      dxz     :     0.027317
      dyz     :     0.025882
      dx2y2   :     0.036744
      dxy     :     0.039298
  4 C s       :     2.879656  s :     2.879656
      pz      :     1.018499  p :     3.080900
      px      :     1.017874
      py      :     1.044527
      dz2     :     0.011317  d :     0.089798
      dxz     :     0.017930
      dyz     :     0.014035
      dx2y2   :     0.021809
      dxy     :     0.024706
  5 C s       :     2.874409  s :     2.874409
      pz      :     0.981576  p :     3.022060
      px      :     0.991708
      py      :     1.048776
      dz2     :     0.013761  d :     0.085806
      dxz     :     0.012029
      dyz     :     0.014474
      dx2y2   :     0.021955
      dxy     :     0.023586
  6 C s       :     2.848372  s :     2.848372
      pz      :     1.040758  p :     3.107182
      px      :     1.010435
      py      :     1.055989
      dz2     :     0.021294  d :     0.086417
      dxz     :     0.016456
      dyz     :     0.012885
      dx2y2   :     0.017222
      dxy     :     0.018561
  7 H s       :     0.769708  s :     0.769708
      pz      :     0.072522  p :     0.182222
      px      :     0.034079
      py      :     0.075621
  8 H s       :     0.905577  s :     0.905577
      pz      :     0.010906  p :     0.066398
      px      :     0.038355
      py      :     0.017137
  9 H s       :     0.897037  s :     0.897037
      pz      :     0.018498  p :     0.065245
      px      :     0.010024
      py      :     0.036723
 10 H s       :     0.896805  s :     0.896805
      pz      :     0.021917  p :     0.069157
      px      :     0.034128
      py      :     0.013112
 11 H s       :     0.903699  s :     0.903699
      pz      :     0.019152  p :     0.084401
      px      :     0.029682
      py      :     0.035566
 12 H s       :     0.889902  s :     0.889902
      pz      :     0.039470  p :     0.069096
      px      :     0.014318
      py      :     0.015308
 13 H s       :     0.882909  s :     0.882909
      pz      :     0.012093  p :     0.067092
      px      :     0.019751
      py      :     0.035249

SPIN
  0 O s       :     0.009893  s :     0.009893
      pz      :     0.087825  p :     0.849853
      px      :     0.678503
      py      :     0.083525
      dz2     :    -0.000013  d :     0.000078
      dxz     :     0.000165
      dyz     :    -0.000224
      dx2y2   :     0.000156
      dxy     :    -0.000004
  1 O s       :     0.022082  s :     0.022082
      pz      :     0.010173  p :     0.050443
      px      :     0.040893
      py      :    -0.000623
      dz2     :     0.000095  d :     0.001917
      dxz     :     0.000349
      dyz     :     0.000090
      dx2y2   :     0.000150
      dxy     :     0.001234
  2 C s       :    -0.000925  s :    -0.000925
      pz      :    -0.002956  p :    -0.006209
      px      :    -0.001318
      py      :    -0.001935
      dz2     :     0.000206  d :     0.002043
      dxz     :     0.001801
      dyz     :    -0.000073
      dx2y2   :     0.000157
      dxy     :    -0.000049
  3 C s       :     0.002588  s :     0.002588
      pz      :     0.023635  p :     0.040197
      px      :     0.005523
      py      :     0.011039
      dz2     :    -0.000112  d :    -0.000896
      dxz     :    -0.000609
      dyz     :    -0.000284
      dx2y2   :     0.000535
      dxy     :    -0.000427
  4 C s       :    -0.001198  s :    -0.001198
      pz      :    -0.018300  p :    -0.030052
      px      :    -0.001889
      py      :    -0.009863
      dz2     :     0.000466  d :     0.002034
      dxz     :     0.000396
      dyz     :     0.000320
      dx2y2   :     0.000646
      dxy     :     0.000207
  5 C s       :     0.001932  s :     0.001932
      pz      :     0.032612  p :     0.052882
      px      :     0.009741
      py      :     0.010530
      dz2     :    -0.000315  d :    -0.000790
      dxz     :    -0.000066
      dyz     :    -0.000177
      dx2y2   :    -0.000143
      dxy     :    -0.000089
  6 C s       :    -0.000231  s :    -0.000231
      pz      :    -0.000279  p :    -0.001321
      px      :    -0.001065
      py      :     0.000023
      dz2     :     0.000166  d :     0.000418
      dxz     :     0.000105
      dyz     :     0.000058
      dx2y2   :     0.000032
      dxy     :     0.000057
  7 H s       :    -0.018344  s :    -0.018344
      pz      :     0.004638  p :     0.021177
      px      :     0.014862
      py      :     0.001677
  8 H s       :     0.001280  s :     0.001280
      pz      :    -0.000070  p :    -0.000192
      px      :    -0.000049
      py      :    -0.000073
  9 H s       :    -0.001342  s :    -0.001342
      pz      :     0.000512  p :     0.000963
      px      :     0.000090
      py      :     0.000362
 10 H s       :     0.000974  s :     0.000974
      pz      :    -0.000415  p :    -0.000770
      px      :    -0.000106
      py      :    -0.000249
 11 H s       :    -0.001437  s :    -0.001437
      pz      :     0.001076  p :     0.001904
      px      :     0.000399
      py      :     0.000429
 12 H s       :     0.000772  s :     0.000772
      pz      :    -0.000038  p :     0.000002
      px      :     0.000035
      py      :     0.000005
 13 H s       :     0.000323  s :     0.000323
      pz      :    -0.000010  p :    -0.000050
      px      :    -0.000023
      py      :    -0.000017


                      *****************************
                      * MAYER POPULATION ANALYSIS *
                      *****************************

  NA   - Mulliken gross atomic population
  ZA   - Total nuclear charge
  QA   - Mulliken gross atomic charge
  VA   - Mayer's total valence
  BVA  - Mayer's bonded valence
  FA   - Mayer's free valence

  ATOM       NA         ZA         QA         VA         BVA        FA
  0 O      8.2435     8.0000    -0.2435     2.0012     1.2330     0.7682
  1 O      8.3264     8.0000    -0.3264     2.0104     2.0036     0.0067
  2 C      5.9451     6.0000     0.0549     3.9779     3.9778     0.0001
  3 C      5.9562     6.0000     0.0438     3.8939     3.8918     0.0021
  4 C      5.9784     6.0000     0.0216     3.7962     3.7950     0.0012
  5 C      6.0859     6.0000    -0.0859     3.9602     3.9569     0.0033
  6 C      5.9284     6.0000     0.0716     3.8248     3.8247     0.0000
  7 H      0.8320     1.0000     0.1680     1.0137     1.0125     0.0012
  8 H      0.9471     1.0000     0.0529     1.0025     1.0024     0.0000
  9 H      0.9359     1.0000     0.0641     0.9850     0.9850     0.0000
 10 H      0.9622     1.0000     0.0378     0.9877     0.9877     0.0000
 11 H      0.9953     1.0000     0.0047     0.9972     0.9972     0.0000
 12 H      0.9366     1.0000     0.0634     0.9796     0.9796     0.0000
 13 H      0.9270     1.0000     0.0730     0.9852     0.9852     0.0000

  Mayer bond orders larger than 0.100000
B(  0-O ,  1-O ) :   0.1450 B(  0-O ,  7-H ) :   0.9884 B(  1-O ,  2-C ) :   0.9189 
B(  1-O ,  3-C ) :   0.8510 B(  2-C ,  3-C ) :   1.0093 B(  2-C ,  6-C ) :   1.0139 
B(  2-C ,  8-H ) :   0.9530 B(  3-C ,  4-C ) :   1.0045 B(  3-C ,  9-H ) :   0.9749 
B(  4-C ,  5-C ) :   1.8105 B(  4-C , 10-H ) :   0.9937 B(  5-C ,  6-C ) :   1.0021 
B(  5-C , 11-H ) :   0.9912 B(  6-C , 12-H ) :   0.9333 B(  6-C , 13-H ) :   0.9281 



------------------
HIRSHFELD ANALYSIS
------------------

Total integrated alpha density =     27.000013520
Total integrated beta density  =     26.000012996

  ATOM     CHARGE      SPIN    
   0 O   -0.243556    0.828994
   1 O   -0.142065    0.083427
   2 C    0.049158    0.000054
   3 C    0.041510    0.033508
   4 C   -0.047685   -0.016542
   5 C   -0.017644    0.041846
   6 C   -0.037136    0.001733
   7 H    0.135880    0.021221
   8 H    0.044409    0.001273
   9 H    0.053431    0.000789
  10 H    0.042904   -0.001142
  11 H    0.041183    0.003318
  12 H    0.035933    0.001034
  13 H    0.043649    0.000489

  TOTAL  -0.000027    1.000001

-------
TIMINGS
-------

Total SCF time: 0 days 0 hours 1 min 17 sec 

Total time                  ....      77.391 sec
Sum of individual times     ....      77.226 sec  ( 99.8%)

Fock matrix formation       ....      75.262 sec  ( 97.2%)
  Split-RI-J                ....       4.446 sec  (  5.9% of F)
  Chain of spheres X        ....      51.864 sec  ( 68.9% of F)
  XC integration            ....      18.947 sec  ( 25.2% of F)
    Basis function eval.    ....       5.592 sec  ( 29.5% of XC)
    Density eval.           ....       5.245 sec  ( 27.7% of XC)
    XC-Functional eval.     ....       1.924 sec  ( 10.2% of XC)
    XC-Potential eval.      ....       5.753 sec  ( 30.4% of XC)
Diagonalization             ....       0.123 sec  (  0.2%)
Density matrix formation    ....       0.010 sec  (  0.0%)
Population analysis         ....       0.407 sec  (  0.5%)
Initial guess               ....       0.219 sec  (  0.3%)
Orbital Transformation      ....       0.000 sec  (  0.0%)
Orbital Orthonormalization  ....       0.000 sec  (  0.0%)
DIIS solution               ....       0.032 sec  (  0.0%)
Grid generation             ....       1.172 sec  (  1.5%)

Maximum memory used throughout the entire SCF-calculation: 63.5 MB


-------------------------------------------------------------------------------
                          DFT DISPERSION CORRECTION                            
                                                                               
                              DFTD3 V3.1  Rev 1                                
                          USING Becke-Johnson damping                          
-------------------------------------------------------------------------------
The PBE0 functional is recognized
Active option DFTDOPT                   ...         4   

molecular C6(AA) [au] = 1741.518404 


            DFT-D V3
 parameters
 s6 scaling factor         :     1.0000 
 a1 scaling factor         :     0.4145 
 s8 scaling factor         :     1.2177 
 a2 scaling factor         :     4.8593 
 ad hoc parameters k1-k3   :    16.0000     1.3333    -4.0000 

 Edisp/kcal,au: -6.161482755232  -0.009818946729 
 E6   /kcal   :  -3.918863152 
 E8   /kcal   :  -2.242619604 
 % E8         :  36.397401287 

-------------------------   ----------------
Dispersion correction           -0.009818947
-------------------------   ----------------


-------------------------   --------------------
FINAL SINGLE POINT ENERGY      -344.362302863341
-------------------------   --------------------

------------------------------------------------------------------------------
                         ORCA SCF GRADIENT CALCULATION
------------------------------------------------------------------------------

 ... reading COSX grid (gridx3)
Gradient of the Kohn-Sham DFT energy:
Kohn-Sham wavefunction type      ... UKS
Hartree-Fock exchange scaling    ...    0.250
Number of operators              ...    2
Number of atoms                  ...   14
Basis set dimensions             ...  133
Integral neglect threshold       ... 2.5e-11
Integral primitive cutoff        ... 2.5e-12
SHARK Integral package           ... ON

Nuc. rep. gradient       (SHARK) ... done (  0.0 sec)
HCore & Overlap gradient (SHARK) ... done (  0.1 sec)
RI-J gradient            (SHARK) ... done (  0.6 sec)
COSX-gradient                    ... done (  7.9 sec)
Exchange-correlation gradient    ... done
Dispersion correction            ... done

------------------
CARTESIAN GRADIENT
------------------

   1   O   :    0.025170519    0.006548464   -0.008564078
   2   O   :   -0.010940398   -0.025192355   -0.011511820
   3   C   :    0.037584026   -0.000403667    0.028709331
   4   C   :   -0.020383028   -0.016963950   -0.039881648
   5   C   :   -0.014316438    0.001173794   -0.001043246
   6   C   :    0.056752594   -0.051514704    0.013744887
   7   C   :   -0.026909399    0.020495225   -0.010805492
   8   H   :    0.002138776    0.002810836   -0.000099761
   9   H   :   -0.010091473    0.005238236   -0.000179024
  10   H   :   -0.001966055    0.016924496    0.012579059
  11   H   :    0.005210211    0.000488995    0.001367782
  12   H   :   -0.042871567    0.045230940    0.009164347
  13   H   :    0.004459736   -0.002863992    0.005496721
  14   H   :   -0.004039219   -0.001958244    0.000968236

Difference to translation invariance:
           :   -0.0002017166    0.0000140748   -0.0000547060

Difference to rotation invariance:
           :    0.0002574469   -0.0001378003    0.0002441231

Norm of the cartesian gradient     ...    0.1355214382
RMS gradient                       ...    0.0209114119
MAX gradient                       ...    0.0567525941

-------
TIMINGS
-------

Total SCF gradient time            ...       12.787 sec

One electron gradient       ....       0.099 sec  (  0.8%)
RI-J Coulomb gradient       ....       0.617 sec  (  4.8%)
COSX gradient               ....       7.916 sec  ( 61.9%)
XC gradient                 ....       3.838 sec  ( 30.0%)

Maximum memory used throughout the entire SCFGRAD-calculation: 50.3 MB

                            ***************************************
                            *     ORCA property calculations      *
                            ***************************************

                                    ---------------------
                                    Active property flags
                                    ---------------------
   (+) Dipole Moment


------------------------------------------------------------------------------
                       ORCA ELECTRIC PROPERTIES CALCULATION
------------------------------------------------------------------------------

Dipole Moment Calculation                       ... on
Quadrupole Moment Calculation                   ... off
Polarizability Calculation                      ... off
GBWName                                         ... 9_1_orca.gbw
Electron density                                ... 9_1_orca.scfp
The origin for moment calculation is the CENTER OF MASS  = (-0.287301, -0.087820  0.373382)

-------------
DIPOLE MOMENT
-------------
                                X             Y             Z
Electronic contribution:     -0.71495       0.39168       1.78476
Nuclear contribution   :      1.25475       0.43351      -2.12254
                        -----------------------------------------
Total Dipole Moment    :      0.53980       0.82518      -0.33778
                        -----------------------------------------
Magnitude (a.u.)       :      1.04230
Magnitude (Debye)      :      2.64933



--------------------
Rotational spectrum 
--------------------
 
Rotational constants in cm-1:     0.176438     0.071508     0.062487 
Rotational constants in MHz :  5289.470042  2143.769913  1873.298444 

 Dipole components along the rotational axes: 
x,y,z [a.u.] :     0.720944    -0.452864     0.601293 
x,y,z [Debye]:     1.832495    -1.151088     1.528366 

 

Timings for individual modules:

Sum of individual times         ...       90.392 sec (=   1.507 min)
GTO integral calculation        ...        0.162 sec (=   0.003 min)   0.2 %
SCF iterations                  ...       77.415 sec (=   1.290 min)  85.6 %
SCF Gradient evaluation         ...       12.815 sec (=   0.214 min)  14.2 %
                             ****ORCA TERMINATED NORMALLY****
TOTAL RUN TIME: 0 days 0 hours 1 minutes 30 seconds 547 msec
