
                                 *****************
                                 * O   R   C   A *
                                 *****************

                                            #,                                       
                                            ###                                      
                                            ####                                     
                                            #####                                    
                                            ######                                   
                                           ########,                                 
                                     ,,################,,,,,                         
                               ,,#################################,,                 
                          ,,##########################################,,             
                       ,#########################################, ''#####,          
                    ,#############################################,,   '####,        
                  ,##################################################,,,,####,       
                ,###########''''           ''''###############################       
              ,#####''   ,,,,##########,,,,          '''####'''          '####       
            ,##' ,,,,###########################,,,                        '##       
           ' ,,###''''                  '''############,,,                           
         ,,##''                                '''############,,,,        ,,,,,,###''
      ,#''                                            '''#######################'''  
     '                                                          ''''####''''         
             ,#######,   #######,   ,#######,      ##                                
            ,#'     '#,  ##    ##  ,#'     '#,    #''#        ######   ,####,        
            ##       ##  ##   ,#'  ##            #'  '#       #        #'  '#        
            ##       ##  #######   ##           ,######,      #####,   #    #        
            '#,     ,#'  ##    ##  '#,     ,#' ,#      #,         ##   #,  ,#        
             '#######'   ##     ##  '#######'  #'      '#     #####' # '####'        



                  #######################################################
                  #                        -***-                        #
                  #          Department of theory and spectroscopy      #
                  #    Directorship and core code : Frank Neese         #
                  #        Max Planck Institute fuer Kohlenforschung    #
                  #                Kaiser Wilhelm Platz 1               #
                  #                 D-45470 Muelheim/Ruhr               #
                  #                      Germany                        #
                  #                                                     #
                  #                  All rights reserved                #
                  #                        -***-                        #
                  #######################################################


                         Program Version 5.0.4 -  RELEASE  -


 With contributions from (in alphabetic order):
   Daniel Aravena         : Magnetic Suceptibility
   Michael Atanasov       : Ab Initio Ligand Field Theory (pilot matlab implementation)
   Alexander A. Auer      : GIAO ZORA, VPT2 properties, NMR spectrum
   Ute Becker             : Parallelization
   Giovanni Bistoni       : ED, misc. LED, open-shell LED, HFLD
   Martin Brehm           : Molecular dynamics
   Dmytro Bykov           : SCF Hessian
   Vijay G. Chilkuri      : MRCI spin determinant printing, contributions to CSF-ICE
   Dipayan Datta          : RHF DLPNO-CCSD density
   Achintya Kumar Dutta   : EOM-CC, STEOM-CC
   Dmitry Ganyushin       : Spin-Orbit,Spin-Spin,Magnetic field MRCI
   Miquel Garcia          : C-PCM and meta-GGA Hessian, CC/C-PCM, Gaussian charge scheme
   Yang Guo               : DLPNO-NEVPT2, F12-NEVPT2, CIM, IAO-localization
   Andreas Hansen         : Spin unrestricted coupled pair/coupled cluster methods
   Benjamin Helmich-Paris : MC-RPA, TRAH-SCF, COSX integrals
   Lee Huntington         : MR-EOM, pCC
   Robert Izsak           : Overlap fitted RIJCOSX, COSX-SCS-MP3, EOM
   Marcus Kettner         : VPT2
   Christian Kollmar      : KDIIS, OOCD, Brueckner-CCSD(T), CCSD density, CASPT2, CASPT2-K
   Simone Kossmann        : Meta GGA functionals, TD-DFT gradient, OOMP2, MP2 Hessian
   Martin Krupicka        : Initial AUTO-CI
   Lucas Lang             : DCDCAS
   Marvin Lechner         : AUTO-CI (C++ implementation), FIC-MRCC
   Dagmar Lenk            : GEPOL surface, SMD
   Dimitrios Liakos       : Extrapolation schemes; Compound Job, initial MDCI parallelization
   Dimitrios Manganas     : Further ROCIS development; embedding schemes
   Dimitrios Pantazis     : SARC Basis sets
   Anastasios Papadopoulos: AUTO-CI, single reference methods and gradients
   Taras Petrenko         : DFT Hessian,TD-DFT gradient, ASA, ECA, R-Raman, ABS, FL, XAS/XES, NRVS
   Peter Pinski           : DLPNO-MP2, DLPNO-MP2 Gradient
   Christoph Reimann      : Effective Core Potentials
   Marius Retegan         : Local ZFS, SOC
   Christoph Riplinger    : Optimizer, TS searches, QM/MM, DLPNO-CCSD(T), (RO)-DLPNO pert. Triples
   Tobias Risthaus        : Range-separated hybrids, TD-DFT gradient, RPA, STAB
   Michael Roemelt        : Original ROCIS implementation
   Masaaki Saitow         : Open-shell DLPNO-CCSD energy and density
   Barbara Sandhoefer     : DKH picture change effects
   Avijit Sen             : IP-ROCIS
   Kantharuban Sivalingam : CASSCF convergence, NEVPT2, FIC-MRCI
   Bernardo de Souza      : ESD, SOC TD-DFT
   Georgi Stoychev        : AutoAux, RI-MP2 NMR, DLPNO-MP2 response
   Willem Van den Heuvel  : Paramagnetic NMR
   Boris Wezisla          : Elementary symmetry handling
   Frank Wennmohs         : Technical directorship


 We gratefully acknowledge several colleagues who have allowed us to
 interface, adapt or use parts of their codes:
   Stefan Grimme, W. Hujo, H. Kruse, P. Pracht,  : VdW corrections, initial TS optimization,
                  C. Bannwarth, S. Ehlert          DFT functionals, gCP, sTDA/sTD-DF
   Ed Valeev, F. Pavosevic, A. Kumar             : LibInt (2-el integral package), F12 methods
   Garnet Chan, S. Sharma, J. Yang, R. Olivares  : DMRG
   Ulf Ekstrom                                   : XCFun DFT Library
   Mihaly Kallay                                 : mrcc  (arbitrary order and MRCC methods)
   Jiri Pittner, Ondrej Demel                    : Mk-CCSD
   Frank Weinhold                                : gennbo (NPA and NBO analysis)
   Christopher J. Cramer and Donald G. Truhlar   : smd solvation model
   Lars Goerigk                                  : TD-DFT with DH, B97 family of functionals
   V. Asgeirsson, H. Jonsson                     : NEB implementation
   FAccTs GmbH                                   : IRC, NEB, NEB-TS, DLPNO-Multilevel, CI-OPT
                                                   MM, QMMM, 2- and 3-layer-ONIOM, Crystal-QMMM,
                                                   LR-CPCM, SF, NACMEs, symmetry and pop. for TD-DFT,
                                                   nearIR, NL-DFT gradient (VV10), updates on ESD,
                                                   ML-optimized integration grids
   S Lehtola, MJT Oliveira, MAL Marques          : LibXC Library
   Liviu Ungur et al                             : ANISO software


 Your calculation uses the libint2 library for the computation of 2-el integrals
 For citations please refer to: http://libint.valeyev.net

 Your ORCA version has been built with support for libXC version: 5.1.0
 For citations please refer to: https://tddft.org/programs/libxc/

 This ORCA versions uses:
   CBLAS   interface :  Fast vector & matrix operations
   LAPACKE interface :  Fast linear algebra routines
   SCALAPACK package :  Parallel linear algebra routines
   Shared memory     :  Shared parallel matrices
   BLAS/LAPACK       :  OpenBLAS 0.3.15  USE64BITINT DYNAMIC_ARCH NO_AFFINITY SkylakeX SINGLE_THREADED
        Core in use  :  SkylakeX
   Copyright (c) 2011-2014, The OpenBLAS Project


Your calculation utilizes the atom-pairwise dispersion correction
with the Becke-Johnson damping scheme (D3BJ)
Cite in your paper:
S.Grimme, S.Ehrlich, L.Goerigk, J Comput Chem, (2011), 32, 1456–1465 
S.Grimme, J.Antony, S.Ehrlich and H.Krieg, J.Chem.Phys., 132, (2010), 154104 
   

================================================================================

----- Orbital basis set information -----
Your calculation utilizes the basis: def2-SVP
   F. Weigend and R. Ahlrichs, Phys. Chem. Chem. Phys. 7, 3297 (2005).

----- AuxJ basis set information -----
Your calculation utilizes the auxiliary basis: def2/J
   F. Weigend, Phys. Chem. Chem. Phys. 8, 1057 (2006).

================================================================================
                                        WARNINGS
                       Please study these warnings very carefully!
================================================================================


WARNING: your system is open-shell and RHF/RKS was chosen
  ===> : WILL SWITCH to UHF/UKS


INFO   : the flag for use of the SHARK integral package has been found!

================================================================================
                                       INPUT FILE
================================================================================
NAME = 20_2_orca.inp
|  1> ! EnGrad PBE0 RIJCOSX D3BJ def2-SVP def2/J 
|  2> %output 
|  3> xyzfile=True 
|  4> end 
|  5> %scf 
|  6> maxiter 250 
|  7> end
|  8> %output
|  9> Print[P_Hirshfeld] = 1
| 10> end
| 11> % maxcore
| 12> 4000
| 13> *xyz 0 2
| 14> O   -2.38978063   0.59071304   1.77592639 
| 15> O   -0.60588167  -0.32517084   0.90843369 
| 16> C   -0.73033498   0.16914854  -0.44393102 
| 17> C    0.14199375   0.88234438   0.50510908 
| 18> C    1.53429025   0.43870656   0.23324065 
| 19> C    1.47655138  -0.59111047  -0.62294991 
| 20> C    0.12982265  -0.67781981  -1.33908498 
| 21> H   -2.25406409  -0.19181162   2.34110878 
| 22> H   -1.75741763   0.48027361  -0.66745517 
| 23> H   -0.18264250   1.75714426   1.07652462 
| 24> H    2.41856882   0.75611548   0.79966599 
| 25> H    2.23643545  -1.32259816  -0.77529141 
| 26> H    0.28244324  -0.27728938  -2.35779714 
| 27> H   -0.29963336  -1.68849897  -1.43337899 
| 28> *
| 29> 
| 30>                          ****END OF INPUT****
================================================================================

                     *******************************
                     * Energy+Gradient Calculation *
                     *******************************

---------------------------------
CARTESIAN COORDINATES (ANGSTROEM)
---------------------------------
  O     -2.389781    0.590713    1.775926
  O     -0.605882   -0.325171    0.908434
  C     -0.730335    0.169149   -0.443931
  C      0.141994    0.882344    0.505109
  C      1.534290    0.438707    0.233241
  C      1.476551   -0.591110   -0.622950
  C      0.129823   -0.677820   -1.339085
  H     -2.254064   -0.191812    2.341109
  H     -1.757418    0.480274   -0.667455
  H     -0.182643    1.757144    1.076525
  H      2.418569    0.756115    0.799666
  H      2.236435   -1.322598   -0.775291
  H      0.282443   -0.277289   -2.357797
  H     -0.299633   -1.688499   -1.433379

----------------------------
CARTESIAN COORDINATES (A.U.)
----------------------------
  NO LB      ZA    FRAG     MASS         X           Y           Z
   0 O     8.0000    0    15.999   -4.516031    1.116286    3.356015
   1 O     8.0000    0    15.999   -1.144950   -0.614484    1.716691
   2 C     6.0000    0    12.011   -1.380133    0.319644   -0.838908
   3 C     6.0000    0    12.011    0.268329    1.667389    0.954518
   4 C     6.0000    0    12.011    2.899388    0.829035    0.440761
   5 C     6.0000    0    12.011    2.790278   -1.117037   -1.177205
   6 C     6.0000    0    12.011    0.245329   -1.280894   -2.530504
   7 H     1.0000    0     1.008   -4.259564   -0.362471    4.424054
   8 H     1.0000    0     1.008   -3.321038    0.907586   -1.261307
   9 H     1.0000    0     1.008   -0.345144    3.320521    2.034337
  10 H     1.0000    0     1.008    4.570433    1.428851    1.511150
  11 H     1.0000    0     1.008    4.226251   -2.499348   -1.465088
  12 H     1.0000    0     1.008    0.533740   -0.524001   -4.455591
  13 H     1.0000    0     1.008   -0.566225   -3.190801   -2.708694

--------------------------------
INTERNAL COORDINATES (ANGSTROEM)
--------------------------------
 O      0   0   0     0.000000000000     0.00000000     0.00000000
 O      1   0   0     2.184875823860     0.00000000     0.00000000
 C      2   1   0     1.445244126322    99.08167632     0.00000000
 C      3   2   1     1.473187982161    60.77668908    96.78460756
 C      4   3   2     1.486343332638   106.99808478    99.03953709
 C      5   4   3     1.340492136277   107.80514564   350.59853636
 C      3   2   1     1.502839694196   108.37976147   198.18473536
 H      1   2   3     0.974779440029    77.29193577   153.73573511
 H      3   2   1     1.096202820990   111.62693997   339.74474324
 H      4   3   2     1.094156864538   123.21673423   263.88486156
 H      5   4   3     1.097057280934   125.04695322   182.62459500
 H      6   5   4     1.065695065712   126.00857324   200.96980772
 H      7   3   2     1.105211352991   115.07596696   191.94682480
 H      7   3   2     1.102177929967   110.16573507    69.72226497

---------------------------
INTERNAL COORDINATES (A.U.)
---------------------------
 O      0   0   0     0.000000000000     0.00000000     0.00000000
 O      1   0   0     4.128816943720     0.00000000     0.00000000
 C      2   1   0     2.731115595406    99.08167632     0.00000000
 C      3   2   1     2.783921830069    60.77668908    96.78460756
 C      4   3   2     2.808781839666   106.99808478    99.03953709
 C      5   4   3     2.533163022238   107.80514564   350.59853636
 C      3   2   1     2.839955445217   108.37976147   198.18473536
 H      1   2   3     1.842066182632    77.29193577   153.73573511
 H      3   2   1     2.071523118903   111.62693997   339.74474324
 H      4   3   2     2.067656821527   123.21673423   263.88486156
 H      5   4   3     2.073137814190   125.04695322   182.62459500
 H      6   5   4     2.013871816467   126.00857324   200.96980772
 H      7   3   2     2.088546777253   115.07596696   191.94682480
 H      7   3   2     2.082814438489   110.16573507    69.72226497

---------------------
BASIS SET INFORMATION
---------------------
There are 3 groups of distinct atoms

 Group   1 Type O   : 7s4p1d contracted to 3s2p1d pattern {511/31/1}
 Group   2 Type C   : 7s4p1d contracted to 3s2p1d pattern {511/31/1}
 Group   3 Type H   : 4s1p contracted to 2s1p pattern {31/1}

Atom   0O    basis set group =>   1
Atom   1O    basis set group =>   1
Atom   2C    basis set group =>   2
Atom   3C    basis set group =>   2
Atom   4C    basis set group =>   2
Atom   5C    basis set group =>   2
Atom   6C    basis set group =>   2
Atom   7H    basis set group =>   3
Atom   8H    basis set group =>   3
Atom   9H    basis set group =>   3
Atom  10H    basis set group =>   3
Atom  11H    basis set group =>   3
Atom  12H    basis set group =>   3
Atom  13H    basis set group =>   3
---------------------------------
AUXILIARY/J BASIS SET INFORMATION
---------------------------------
There are 3 groups of distinct atoms

 Group   1 Type O   : 12s5p4d2f1g contracted to 6s4p3d1f1g pattern {711111/2111/211/2/1}
 Group   2 Type C   : 12s5p4d2f1g contracted to 6s4p3d1f1g pattern {711111/2111/211/2/1}
 Group   3 Type H   : 5s2p1d contracted to 3s1p1d pattern {311/2/1}

Atom   0O    basis set group =>   1
Atom   1O    basis set group =>   1
Atom   2C    basis set group =>   2
Atom   3C    basis set group =>   2
Atom   4C    basis set group =>   2
Atom   5C    basis set group =>   2
Atom   6C    basis set group =>   2
Atom   7H    basis set group =>   3
Atom   8H    basis set group =>   3
Atom   9H    basis set group =>   3
Atom  10H    basis set group =>   3
Atom  11H    basis set group =>   3
Atom  12H    basis set group =>   3
Atom  13H    basis set group =>   3
------------------------------------------------------------------------------
                           ORCA GTO INTEGRAL CALCULATION
                           -- RI-GTO INTEGRALS CHOSEN --
------------------------------------------------------------------------------
------------------------------------------------------------------------------
                   ___                                                        
                  /   \      - P O W E R E D   B Y -                         
                 /     \                                                     
                 |  |  |   _    _      __       _____    __    __             
                 |  |  |  | |  | |    /  \     |  _  \  |  |  /  |          
                  \  \/   | |  | |   /    \    | | | |  |  | /  /          
                 / \  \   | |__| |  /  /\  \   | |_| |  |  |/  /          
                |  |  |   |  __  | /  /__\  \  |    /   |      \           
                |  |  |   | |  | | |   __   |  |    \   |  |\   \          
                \     /   | |  | | |  |  |  |  | |\  \  |  | \   \       
                 \___/    |_|  |_| |__|  |__|  |_| \__\ |__|  \__/        
                                                                              
                      - O R C A' S   B I G   F R I E N D -                    
                                      &                                       
                       - I N T E G R A L  F E E D E R -                       
                                                                              
 v1 FN, 2020, v2 2021                                                         
------------------------------------------------------------------------------


Reading SHARK input file 20_2_orca.SHARKINP.tmp ... ok
----------------------
SHARK INTEGRAL PACKAGE
----------------------

Number of atoms                             ...     14
Number of basis functions                   ...    133
Number of shells                            ...     63
Maximum angular momentum                    ...      2
Integral batch strategy                     ... SHARK/LIBINT Hybrid
RI-J (if used) integral strategy            ... SPLIT-RIJ (Revised 2003 algorithm where possible)
Printlevel                                  ...      1
Contraction scheme used                     ... SEGMENTED contraction
Coulomb Range Separation                    ... NOT USED
Exchange Range Separation                   ... NOT USED
Finite Nucleus Model                        ... NOT USED
Auxiliary Coulomb fitting basis             ... AVAILABLE
   # of basis functions in Aux-J            ...    420
   # of shells in Aux-J                     ...    140
   Maximum angular momentum in Aux-J        ...      4
Auxiliary J/K fitting basis                 ... NOT available
Auxiliary Correlation fitting basis         ... NOT available
Auxiliary 'external' fitting basis          ... NOT available
Integral threshold                          ...     2.500000e-11
Primitive cut-off                           ...     2.500000e-12
Primitive pair pre-selection threshold      ...     2.500000e-12

Calculating pre-screening integrals         ... done (  0.0 sec) Dimension = 63
Organizing shell pair data                  ... done (  0.0 sec)
Shell pair information
Total number of shell pairs                 ...      2016
Shell pairs after pre-screening             ...      1941
Total number of primitive shell pairs       ...      7252
Primitive shell pairs kept                  ...      5319
          la=0 lb=0:    604 shell pairs
          la=1 lb=0:    708 shell pairs
          la=1 lb=1:    224 shell pairs
          la=2 lb=0:    237 shell pairs
          la=2 lb=1:    141 shell pairs
          la=2 lb=2:     27 shell pairs

Calculating one electron integrals          ... done (  0.0 sec)
Calculating RI/J V-Matrix + Cholesky decomp.... done (  0.0 sec)
Calculating Nuclear repulsion               ... done (  0.0 sec) ENN=    298.070452436422 Eh

SHARK setup successfully completed in   0.1 seconds

Maximum memory used throughout the entire GTOINT-calculation: 16.8 MB
-------------------------------------------------------------------------------
                                 ORCA SCF
-------------------------------------------------------------------------------

------------
SCF SETTINGS
------------
Hamiltonian:
 Density Functional     Method          .... DFT(GTOs)
 Exchange Functional    Exchange        .... PBE
   PBE kappa parameter   XKappa         ....  0.804000
   PBE mue parameter    XMuePBE         ....  0.219520
 Correlation Functional Correlation     .... PBE
   PBE beta parameter  CBetaPBE         ....  0.066725
 LDA part of GGA corr.  LDAOpt          .... PW91-LDA
 Gradients option       PostSCFGGA      .... off
 Hybrid DFT is turned on
   Fraction HF Exchange ScalHFX         ....  0.250000
   Scaling of DF-GGA-X  ScalDFX         ....  0.750000
   Scaling of DF-GGA-C  ScalDFC         ....  1.000000
   Scaling of DF-LDA-C  ScalLDAC        ....  1.000000
   Perturbative correction              ....  0.000000
   Density functional embedding theory  .... OFF
   NL short-range parameter             ....  6.900000
 RI-approximation to the Coulomb term is turned on
   Number of AuxJ basis functions       .... 420
   RIJ-COSX (HFX calculated with COS-X)).... on


General Settings:
 Integral files         IntName         .... 20_2_orca
 Hartree-Fock type      HFTyp           .... UHF
 Total Charge           Charge          ....    0
 Multiplicity           Mult            ....    2
 Number of Electrons    NEL             ....   53
 Basis Dimension        Dim             ....  133
 Nuclear Repulsion      ENuc            ....    298.0704524364 Eh

Convergence Acceleration:
 DIIS                   CNVDIIS         .... on
   Start iteration      DIISMaxIt       ....    12
   Startup error        DIISStart       ....  0.200000
   # of expansion vecs  DIISMaxEq       ....     5
   Bias factor          DIISBfac        ....   1.050
   Max. coefficient     DIISMaxC        ....  10.000
 Trust-Rad. Augm. Hess. CNVTRAH         .... auto
   Auto Start mean grad. ratio tolernc. ....  1.125000
   Auto Start start iteration           ....    20
   Auto Start num. interpolation iter.  ....    10
   Max. Number of Micro iterations      ....    16
   Max. Number of Macro iterations      .... Maxiter - #DIIS iter
   Number of Davidson start vectors     ....     2
   Converg. threshold I  (grad. norm)   ....   1.000e-05
   Converg. threshold II (energy diff.) ....   1.000e-08
   Grad. Scal. Fac. for Micro threshold ....   0.100
   Minimum threshold for Micro iter.    ....   0.010
   NR start threshold (gradient norm)   ....   0.001
   Initial trust radius                 ....   0.400
   Minimum AH scaling param. (alpha)    ....   1.000
   Maximum AH scaling param. (alpha)    .... 1000.000
   Orbital update algorithm             .... Taylor
   White noise on init. David. guess    .... on
   Maximum white noise                  ....   0.010
   Quad. conv. algorithm                .... NR
 SOSCF                  CNVSOSCF        .... off
 Level Shifting         CNVShift        .... on
   Level shift para.    LevelShift      ....    0.2500
   Turn off err/grad.   ShiftErr        ....    0.0010
 Zerner damping         CNVZerner       .... off
 Static damping         CNVDamp         .... on
   Fraction old density DampFac         ....    0.7000
   Max. Damping (<1)    DampMax         ....    0.9800
   Min. Damping (>=0)   DampMin         ....    0.0000
   Turn off err/grad.   DampErr         ....    0.1000
 Fernandez-Rico         CNVRico         .... off

SCF Procedure:
 Maximum # iterations   MaxIter         ....   250
 SCF integral mode      SCFMode         .... Direct
   Integral package                     .... SHARK and LIBINT hybrid scheme
 Reset frequency        DirectResetFreq ....    20
 Integral Threshold     Thresh          ....  2.500e-11 Eh
 Primitive CutOff       TCut            ....  2.500e-12 Eh

Convergence Tolerance:
 Convergence Check Mode ConvCheckMode   .... Total+1el-Energy
 Convergence forced     ConvForced      .... 0
 Energy Change          TolE            ....  1.000e-08 Eh
 1-El. energy change                    ....  1.000e-05 Eh
 DIIS Error             TolErr          ....  5.000e-07


Diagonalization of the overlap matrix:
Smallest eigenvalue                        ... 7.601e-04
Time for diagonalization                   ...    0.003 sec
Threshold for overlap eigenvalues          ... 1.000e-08
Number of eigenvalues below threshold      ... 0
Time for construction of square roots      ...    0.001 sec
Total time needed                          ...    0.003 sec

Time for model grid setup =    0.119 sec

------------------------------
INITIAL GUESS: MODEL POTENTIAL
------------------------------
Loading Hartree-Fock densities                     ... done
Calculating cut-offs                               ... done
Initializing the effective Hamiltonian             ... done
Setting up the integral package (SHARK)            ... done
Starting the Coulomb interaction                   ... done (   0.1 sec)
Reading the grid                                   ... done
Mapping shells                                     ... done
Starting the XC term evaluation                    ... done (   0.1 sec)
  promolecular density results
     # of electrons  =     52.998568311
     EX              =    -43.862251788
     EC              =     -1.752445924
     EX+EC           =    -45.614697713
Transforming the Hamiltonian                       ... done (   0.0 sec)
Diagonalizing the Hamiltonian                      ... done (   0.0 sec)
Back transforming the eigenvectors                 ... done (   0.0 sec)
Now organizing SCF variables                       ... done
                      ------------------
                      INITIAL GUESS DONE (   0.3 sec)
                      ------------------
-------------------
DFT GRID GENERATION
-------------------

General Integration Accuracy     IntAcc      ... 4.388
Radial Grid Type                 RadialGrid  ... OptM3 with GC (2021)
Angular Grid (max. ang.)         AngularGrid ... 4 (Lebedev-302)
Angular grid pruning method      GridPruning ... 4 (adaptive)
Weight generation scheme         WeightScheme... Becke
Basis function cutoff            BFCut       ... 1.0000e-11
Integration weight cutoff        WCut        ... 1.0000e-14
Angular grids for H and He will be reduced by one unit
Partially contracted basis set               ... off
Rotationally invariant grid construction     ... off

Total number of grid points                  ...    64867
Total number of batches                      ...     1020
Average number of points per batch           ...       63
Average number of grid points per atom       ...     4633
Time for grid setup =    0.487 sec

--------------------
COSX GRID GENERATION
--------------------

GRIDX 1
-------
General Integration Accuracy     IntAcc      ... 3.816
Radial Grid Type                 RadialGrid  ... OptM3 with GC (2021)
Angular Grid (max. ang.)         AngularGrid ... 1 (Lebedev-50)
Angular grid pruning method      GridPruning ... 4 (adaptive)
Weight generation scheme         WeightScheme... Becke
Basis function cutoff            BFCut       ... 1.0000e-11
Integration weight cutoff        WCut        ... 1.0000e-14
Angular grids for H and He will be reduced by one unit
Partially contracted basis set               ... on
Rotationally invariant grid construction     ... off

Total number of grid points                  ...     8303
Total number of batches                      ...      136
Average number of points per batch           ...       61
Average number of grid points per atom       ...      593
UseSFitting                                  ... on

GRIDX 2
-------
General Integration Accuracy     IntAcc      ... 4.020
Radial Grid Type                 RadialGrid  ... OptM3 with GC (2021)
Angular Grid (max. ang.)         AngularGrid ... 2 (Lebedev-110)
Angular grid pruning method      GridPruning ... 4 (adaptive)
Weight generation scheme         WeightScheme... Becke
Basis function cutoff            BFCut       ... 1.0000e-11
Integration weight cutoff        WCut        ... 1.0000e-14
Angular grids for H and He will be reduced by one unit
Partially contracted basis set               ... on
Rotationally invariant grid construction     ... off

Total number of grid points                  ...    18056
Total number of batches                      ...      289
Average number of points per batch           ...       62
Average number of grid points per atom       ...     1290
UseSFitting                                  ... on

GRIDX 3
-------
General Integration Accuracy     IntAcc      ... 4.338
Radial Grid Type                 RadialGrid  ... OptM3 with GC (2021)
Angular Grid (max. ang.)         AngularGrid ... 3 (Lebedev-194)
Angular grid pruning method      GridPruning ... 4 (adaptive)
Weight generation scheme         WeightScheme... Becke
Basis function cutoff            BFCut       ... 1.0000e-11
Integration weight cutoff        WCut        ... 1.0000e-14
Angular grids for H and He will be reduced by one unit
Partially contracted basis set               ... on
Rotationally invariant grid construction     ... off

Total number of grid points                  ...    39659
Total number of batches                      ...      626
Average number of points per batch           ...       63
Average number of grid points per atom       ...     2833
UseSFitting                                  ... on

Time for X-Grid setup             =    0.554 sec

--------------
SCF ITERATIONS
--------------
ITER       Energy         Delta-E        Max-DP      RMS-DP      [F,P]     Damp
               ***  Starting incremental Fock matrix formation  ***
  0   -344.1596725520   0.000000000000 0.05633878  0.00143642  0.1583896 0.7000
  1   -344.2534190555  -0.093746503469 0.03937319  0.00096717  0.0598573 0.7000
                               ***Turning on DIIS***
  2   -344.2912571515  -0.037838096075 0.07399690  0.00174031  0.0202934 0.0000
  3   -344.3593973877  -0.068140236150 0.02995477  0.00080273  0.0575994 0.0000
  4   -344.3737840918  -0.014386704094 0.01255774  0.00036094  0.0097792 0.0000
  5   -344.3751108073  -0.001326715572 0.00621545  0.00021125  0.0078599 0.0000
  6   -344.3759040963  -0.000793288961 0.00473358  0.00012250  0.0035202 0.0000
  7   -344.3761518317  -0.000247735433 0.00232544  0.00005441  0.0024417 0.0000
  8   -344.3762376039  -0.000085772191 0.00175477  0.00004075  0.0013230 0.0000
  9   -344.3762745267  -0.000036922775 0.00226555  0.00005292  0.0008082 0.0000
               *** Restarting incremental Fock matrix formation ***
                                   *** Resetting DIIS ***
 10   -344.3762975094  -0.000022982668 0.00020953  0.00000924  0.0001453 0.0000
 11   -344.3762977047  -0.000000195312 0.00016902  0.00000448  0.0001833 0.0000
 12   -344.3762980397  -0.000000335019 0.00007719  0.00000212  0.0000722 0.0000
 13   -344.3762981125  -0.000000072832 0.00012107  0.00000192  0.0000359 0.0000
 14   -344.3762981692  -0.000000056664 0.00010388  0.00000155  0.0000249 0.0000
 15   -344.3762981998  -0.000000030557 0.00006010  0.00000082  0.0000227 0.0000
 16   -344.3762982157  -0.000000015983 0.00012007  0.00000154  0.0000205 0.0000
 17   -344.3762982328  -0.000000017042 0.00010502  0.00000130  0.0000150 0.0000
 18   -344.3762982406  -0.000000007850 0.00005387  0.00000065  0.0000095 0.0000
 19   -344.3762982448  -0.000000004212 0.00004280  0.00000050  0.0000065 0.0000
 20   -344.3762982455  -0.000000000666 0.00001683  0.00000021  0.0000041 0.0000
 21   -344.3762982442   0.000000001350 0.00002643  0.00000030  0.0000031 0.0000
                 **** Energy Check signals convergence ****

               *****************************************************
               *                     SUCCESS                       *
               *           SCF CONVERGED AFTER  22 CYCLES          *
               *****************************************************

Old exchange energy                            =    -11.180548663 Eh
New exchange energy                            =    -11.180530141 Eh
Exchange energy change after final integration =      0.000018523 Eh
Total energy after final integration           =   -344.376279724 Eh
Final COS-X integration done in                =     4.866 sec

----------------
TOTAL SCF ENERGY
----------------

Total Energy       :         -344.37627972 Eh           -9370.95498 eV

Components:
Nuclear Repulsion  :          298.07045244 Eh            8110.90936 eV
Electronic Energy  :         -642.44673216 Eh          -17481.86434 eV
One Electron Energy:        -1059.49270268 Eh          -28830.26214 eV
Two Electron Energy:          417.04597052 Eh           11348.39780 eV
Max COSX asymmetry :            0.00000057 Eh               0.00002 eV

Virial components:
Potential Energy   :         -685.86925662 Eh          -18663.45130 eV
Kinetic Energy     :          341.49297689 Eh            9292.49632 eV
Virial Ratio       :            2.00844323


DFT components:
N(Alpha)           :       27.000018708155 electrons
N(Beta)            :       26.000017602738 electrons
N(Total)           :       53.000036310893 electrons
E(X)               :      -33.464376502099 Eh       
E(C)               :       -1.768109412385 Eh       
E(XC)              :      -35.232485914485 Eh       
DFET-embed. en.    :        0.000000000000 Eh       

---------------
SCF CONVERGENCE
---------------

  Last Energy change         ...   -2.3961e-09  Tolerance :   1.0000e-08
  Last MAX-Density change    ...    0.0000e+00  Tolerance :   1.0000e-07
  Last RMS-Density change    ...    0.0000e+00  Tolerance :   5.0000e-09
  Last DIIS Error            ...    2.1838e-06  Tolerance :   5.0000e-07

             **** THE GBW FILE WAS UPDATED (20_2_orca.gbw) ****
             **** DENSITY 20_2_orca.scfp WAS UPDATED ****
             **** ENERGY FILE WAS UPDATED (20_2_orca.en.tmp) ****
----------------------
UHF SPIN CONTAMINATION
----------------------

Warning: in a DFT calculation there is little theoretical justification to 
         calculate <S**2> as in Hartree-Fock theory. We will do it anyways
         but you should keep in mind that the values have only limited relevance

Expectation value of <S**2>     :     0.753127
Ideal value S*(S+1) for S=0.5   :     0.750000
Deviation                       :     0.003127

             **** THE GBW FILE WAS UPDATED (20_2_orca.gbw) ****
             **** DENSITY 20_2_orca.scfp WAS UPDATED ****
----------------
ORBITAL ENERGIES
----------------
                 SPIN UP ORBITALS
  NO   OCC          E(Eh)            E(eV) 
   0   1.0000     -19.235115      -523.4141 
   1   1.0000     -19.209887      -522.7276 
   2   1.0000     -10.293898      -280.1112 
   3   1.0000     -10.292323      -280.0683 
   4   1.0000     -10.251297      -278.9520 
   5   1.0000     -10.248642      -278.8797 
   6   1.0000     -10.243881      -278.7502 
   7   1.0000      -1.101746       -29.9800 
   8   1.0000      -0.962897       -26.2017 
   9   1.0000      -0.846346       -23.0302 
  10   1.0000      -0.745365       -20.2824 
  11   1.0000      -0.686218       -18.6729 
  12   1.0000      -0.598247       -16.2791 
  13   1.0000      -0.571661       -15.5557 
  14   1.0000      -0.557814       -15.1789 
  15   1.0000      -0.478200       -13.0125 
  16   1.0000      -0.461473       -12.5573 
  17   1.0000      -0.433818       -11.8048 
  18   1.0000      -0.423389       -11.5210 
  19   1.0000      -0.418758       -11.3950 
  20   1.0000      -0.406442       -11.0599 
  21   1.0000      -0.380835       -10.3631 
  22   1.0000      -0.366855        -9.9826 
  23   1.0000      -0.333663        -9.0794 
  24   1.0000      -0.294200        -8.0056 
  25   1.0000      -0.286754        -7.8030 
  26   1.0000      -0.259427        -7.0594 
  27   0.0000      -0.012675        -0.3449 
  28   0.0000       0.077902         2.1198 
  29   0.0000       0.097685         2.6581 
  30   0.0000       0.108948         2.9646 
  31   0.0000       0.111714         3.0399 
  32   0.0000       0.129563         3.5256 
  33   0.0000       0.140836         3.8323 
  34   0.0000       0.142984         3.8908 
  35   0.0000       0.153261         4.1704 
  36   0.0000       0.166627         4.5342 
  37   0.0000       0.191177         5.2022 
  38   0.0000       0.217024         5.9055 
  39   0.0000       0.303819         8.2673 
  40   0.0000       0.320062         8.7093 
  41   0.0000       0.394805        10.7432 
  42   0.0000       0.397213        10.8087 
  43   0.0000       0.454872        12.3777 
  44   0.0000       0.476362        12.9625 
  45   0.0000       0.477701        12.9989 
  46   0.0000       0.501750        13.6533 
  47   0.0000       0.525677        14.3044 
  48   0.0000       0.541143        14.7253 
  49   0.0000       0.552657        15.0386 
  50   0.0000       0.569491        15.4966 
  51   0.0000       0.599515        16.3136 
  52   0.0000       0.619521        16.8580 
  53   0.0000       0.633793        17.2464 
  54   0.0000       0.645132        17.5549 
  55   0.0000       0.655440        17.8354 
  56   0.0000       0.668838        18.2000 
  57   0.0000       0.681327        18.5398 
  58   0.0000       0.684646        18.6302 
  59   0.0000       0.691882        18.8271 
  60   0.0000       0.707928        19.2637 
  61   0.0000       0.733212        19.9517 
  62   0.0000       0.763956        20.7883 
  63   0.0000       0.781070        21.2540 
  64   0.0000       0.834359        22.7041 
  65   0.0000       0.902602        24.5611 
  66   0.0000       0.931697        25.3528 
  67   0.0000       0.964013        26.2321 
  68   0.0000       0.994149        27.0522 
  69   0.0000       1.014055        27.5938 
  70   0.0000       1.034313        28.1451 
  71   0.0000       1.074564        29.2404 
  72   0.0000       1.088550        29.6210 
  73   0.0000       1.117312        30.4036 
  74   0.0000       1.189110        32.3573 
  75   0.0000       1.218744        33.1637 
  76   0.0000       1.312961        35.7275 
  77   0.0000       1.360922        37.0326 
  78   0.0000       1.428527        38.8722 
  79   0.0000       1.485170        40.4135 
  80   0.0000       1.503199        40.9041 
  81   0.0000       1.520775        41.3824 
  82   0.0000       1.545451        42.0539 
  83   0.0000       1.571995        42.7762 
  84   0.0000       1.603287        43.6277 
  85   0.0000       1.648974        44.8709 
  86   0.0000       1.684137        45.8277 
  87   0.0000       1.693182        46.0738 
  88   0.0000       1.711270        46.5660 
  89   0.0000       1.744490        47.4700 
  90   0.0000       1.768259        48.1168 
  91   0.0000       1.781023        48.4641 
  92   0.0000       1.807986        49.1978 
  93   0.0000       1.851110        50.3713 
  94   0.0000       1.868810        50.8529 
  95   0.0000       1.889803        51.4242 
  96   0.0000       1.926105        52.4120 
  97   0.0000       1.956011        53.2258 
  98   0.0000       1.991038        54.1789 
  99   0.0000       2.022068        55.0233 
 100   0.0000       2.039002        55.4841 
 101   0.0000       2.063118        56.1403 
 102   0.0000       2.110931        57.4414 
 103   0.0000       2.156661        58.6857 
 104   0.0000       2.183442        59.4145 
 105   0.0000       2.231412        60.7198 
 106   0.0000       2.234617        60.8070 
 107   0.0000       2.266293        61.6690 
 108   0.0000       2.294677        62.4413 
 109   0.0000       2.379767        64.7568 
 110   0.0000       2.410913        65.6043 
 111   0.0000       2.513499        68.3958 
 112   0.0000       2.535950        69.0067 
 113   0.0000       2.574509        70.0560 
 114   0.0000       2.642464        71.9051 
 115   0.0000       2.675902        72.8150 
 116   0.0000       2.711339        73.7793 
 117   0.0000       2.733595        74.3849 
 118   0.0000       2.754615        74.9569 
 119   0.0000       2.780976        75.6742 
 120   0.0000       2.796061        76.0847 
 121   0.0000       2.850574        77.5681 
 122   0.0000       2.894981        78.7764 
 123   0.0000       2.948247        80.2259 
 124   0.0000       2.983449        81.1838 
 125   0.0000       3.004607        81.7595 
 126   0.0000       3.071266        83.5734 
 127   0.0000       3.099336        84.3372 
 128   0.0000       3.130572        85.1872 
 129   0.0000       3.306091        89.9633 
 130   0.0000       3.391103        92.2766 
 131   0.0000       3.447213        93.8034 
 132   0.0000       3.737459       101.7014 

                 SPIN DOWN ORBITALS
  NO   OCC          E(Eh)            E(eV) 
   0   1.0000     -19.229993      -523.2747 
   1   1.0000     -19.184789      -522.0447 
   2   1.0000     -10.294031      -280.1148 
   3   1.0000     -10.292452      -280.0718 
   4   1.0000     -10.251276      -278.9514 
   5   1.0000     -10.248518      -278.8763 
   6   1.0000     -10.243845      -278.7492 
   7   1.0000      -1.094777       -29.7904 
   8   1.0000      -0.896462       -24.3940 
   9   1.0000      -0.843815       -22.9614 
  10   1.0000      -0.745258       -20.2795 
  11   1.0000      -0.683659       -18.6033 
  12   1.0000      -0.597737       -16.2653 
  13   1.0000      -0.570682       -15.5291 
  14   1.0000      -0.554639       -15.0925 
  15   1.0000      -0.472816       -12.8660 
  16   1.0000      -0.460323       -12.5260 
  17   1.0000      -0.421862       -11.4794 
  18   1.0000      -0.419805       -11.4235 
  19   1.0000      -0.407140       -11.0788 
  20   1.0000      -0.402809       -10.9610 
  21   1.0000      -0.373997       -10.1770 
  22   1.0000      -0.336968        -9.1694 
  23   1.0000      -0.293031        -7.9738 
  24   1.0000      -0.269386        -7.3304 
  25   1.0000      -0.263939        -7.1821 
  26   0.0000      -0.074005        -2.0138 
  27   0.0000      -0.011739        -0.3194 
  28   0.0000       0.079392         2.1604 
  29   0.0000       0.100673         2.7394 
  30   0.0000       0.109250         2.9728 
  31   0.0000       0.114394         3.1128 
  32   0.0000       0.130613         3.5542 
  33   0.0000       0.141182         3.8418 
  34   0.0000       0.144167         3.9230 
  35   0.0000       0.153956         4.1893 
  36   0.0000       0.170739         4.6460 
  37   0.0000       0.191589         5.2134 
  38   0.0000       0.217503         5.9186 
  39   0.0000       0.304123         8.2756 
  40   0.0000       0.320604         8.7241 
  41   0.0000       0.395096        10.7511 
  42   0.0000       0.397484        10.8161 
  43   0.0000       0.455490        12.3945 
  44   0.0000       0.476956        12.9786 
  45   0.0000       0.478462        13.0196 
  46   0.0000       0.502161        13.6645 
  47   0.0000       0.526443        14.3252 
  48   0.0000       0.542852        14.7717 
  49   0.0000       0.554434        15.0869 
  50   0.0000       0.570246        15.5172 
  51   0.0000       0.600003        16.3269 
  52   0.0000       0.619947        16.8696 
  53   0.0000       0.638039        17.3619 
  54   0.0000       0.645903        17.5759 
  55   0.0000       0.662801        18.0357 
  56   0.0000       0.669530        18.2188 
  57   0.0000       0.681614        18.5477 
  58   0.0000       0.686488        18.6803 
  59   0.0000       0.692170        18.8349 
  60   0.0000       0.708360        19.2754 
  61   0.0000       0.733984        19.9727 
  62   0.0000       0.765203        20.8222 
  63   0.0000       0.782082        21.2815 
  64   0.0000       0.834782        22.7156 
  65   0.0000       0.907762        24.7015 
  66   0.0000       0.955168        25.9915 
  67   0.0000       0.972325        26.4583 
  68   0.0000       1.005872        27.3712 
  69   0.0000       1.032418        28.0935 
  70   0.0000       1.052504        28.6401 
  71   0.0000       1.085803        29.5462 
  72   0.0000       1.097384        29.8613 
  73   0.0000       1.140650        31.0387 
  74   0.0000       1.197639        32.5894 
  75   0.0000       1.221113        33.2282 
  76   0.0000       1.315358        35.7927 
  77   0.0000       1.363527        37.1034 
  78   0.0000       1.435715        39.0678 
  79   0.0000       1.486835        40.4588 
  80   0.0000       1.509746        41.0823 
  81   0.0000       1.524154        41.4743 
  82   0.0000       1.546323        42.0776 
  83   0.0000       1.573607        42.8200 
  84   0.0000       1.608235        43.7623 
  85   0.0000       1.652161        44.9576 
  86   0.0000       1.686818        45.9007 
  87   0.0000       1.695052        46.1247 
  88   0.0000       1.711580        46.5745 
  89   0.0000       1.745052        47.4853 
  90   0.0000       1.769612        48.1536 
  91   0.0000       1.785535        48.5869 
  92   0.0000       1.808227        49.2043 
  93   0.0000       1.851438        50.3802 
  94   0.0000       1.869541        50.8728 
  95   0.0000       1.891007        51.4569 
  96   0.0000       1.926480        52.4222 
  97   0.0000       1.956775        53.2466 
  98   0.0000       1.991419        54.1893 
  99   0.0000       2.022450        55.0337 
 100   0.0000       2.041169        55.5430 
 101   0.0000       2.064466        56.1770 
 102   0.0000       2.111713        57.4626 
 103   0.0000       2.157358        58.7047 
 104   0.0000       2.184276        59.4372 
 105   0.0000       2.232550        60.7508 
 106   0.0000       2.249697        61.2174 
 107   0.0000       2.267646        61.7058 
 108   0.0000       2.295684        62.4687 
 109   0.0000       2.380040        64.7642 
 110   0.0000       2.411348        65.6161 
 111   0.0000       2.514475        68.4223 
 112   0.0000       2.536737        69.0281 
 113   0.0000       2.576500        70.1101 
 114   0.0000       2.646661        72.0193 
 115   0.0000       2.733020        74.3692 
 116   0.0000       2.743115        74.6439 
 117   0.0000       2.751867        74.8821 
 118   0.0000       2.776890        75.5630 
 119   0.0000       2.786832        75.8335 
 120   0.0000       2.811033        76.4921 
 121   0.0000       2.859610        77.8139 
 122   0.0000       2.900585        78.9289 
 123   0.0000       2.957707        80.4833 
 124   0.0000       3.015185        82.0473 
 125   0.0000       3.047789        82.9346 
 126   0.0000       3.071952        83.5921 
 127   0.0000       3.106994        84.5456 
 128   0.0000       3.131613        85.2155 
 129   0.0000       3.311318        90.1056 
 130   0.0000       3.394523        92.3697 
 131   0.0000       3.448575        93.8405 
 132   0.0000       3.760494       102.3282 

                    ********************************
                    * MULLIKEN POPULATION ANALYSIS *
                    ********************************

--------------------------------------------
MULLIKEN ATOMIC CHARGES AND SPIN POPULATIONS
--------------------------------------------
   0 O :   -0.259519    0.907156
   1 O :   -0.339685    0.120596
   2 C :    0.007652   -0.007271
   3 C :    0.074212   -0.007262
   4 C :    0.034588    0.000374
   5 C :   -0.123270    0.006766
   6 C :    0.085212    0.000087
   7 H :    0.177440   -0.024186
   8 H :    0.070839    0.002602
   9 H :    0.063854    0.001422
  10 H :    0.039778    0.000025
  11 H :    0.030835   -0.000448
  12 H :    0.071766    0.000270
  13 H :    0.066299   -0.000130
Sum of atomic charges         :    0.0000000
Sum of atomic spin populations:    1.0000000

-----------------------------------------------------
MULLIKEN REDUCED ORBITAL CHARGES AND SPIN POPULATIONS
-----------------------------------------------------
CHARGE
  0 O s       :     3.863938  s :     3.863938
      pz      :     1.501357  p :     4.389126
      px      :     1.391409
      py      :     1.496361
      dz2     :     0.000421  d :     0.006455
      dxz     :     0.000537
      dyz     :     0.003158
      dx2y2   :     0.001718
      dxy     :     0.000622
  1 O s       :     3.885444  s :     3.885444
      pz      :     1.349141  p :     4.436070
      px      :     1.623080
      py      :     1.463849
      dz2     :     0.005369  d :     0.018171
      dxz     :     0.002503
      dyz     :     0.004746
      dx2y2   :     0.002369
      dxy     :     0.003184
  2 C s       :     3.210867  s :     3.210867
      pz      :     0.766765  p :     2.711502
      px      :     0.999264
      py      :     0.945473
      dz2     :     0.020756  d :     0.069980
      dxz     :     0.015780
      dyz     :     0.017365
      dx2y2   :     0.007469
      dxy     :     0.008610
  3 C s       :     3.191714  s :     3.191714
      pz      :     0.937620  p :     2.667556
      px      :     0.908086
      py      :     0.821850
      dz2     :     0.008220  d :     0.066517
      dxz     :     0.011114
      dyz     :     0.012535
      dx2y2   :     0.016216
      dxy     :     0.018433
  4 C s       :     3.155361  s :     3.155361
      pz      :     0.979973  p :     2.776030
      px      :     0.840026
      py      :     0.956031
      dz2     :     0.005996  d :     0.034021
      dxz     :     0.007872
      dyz     :     0.004783
      dx2y2   :     0.007957
      dxy     :     0.007413
  5 C s       :     3.222150  s :     3.222150
      pz      :     0.977130  p :     2.865501
      px      :     0.958068
      py      :     0.930302
      dz2     :     0.007872  d :     0.035619
      dxz     :     0.006214
      dyz     :     0.005112
      dx2y2   :     0.007452
      dxy     :     0.008969
  6 C s       :     2.954818  s :     2.954818
      pz      :     0.972596  p :     2.925644
      px      :     0.932602
      py      :     1.020445
      dz2     :     0.007459  d :     0.034326
      dxz     :     0.007394
      dyz     :     0.005402
      dx2y2   :     0.007249
      dxy     :     0.006821
  7 H s       :     0.756305  s :     0.756305
      pz      :     0.021519  p :     0.066255
      px      :     0.014867
      py      :     0.029869
  8 H s       :     0.906729  s :     0.906729
      pz      :     0.002496  p :     0.022433
      px      :     0.015113
      py      :     0.004824
  9 H s       :     0.913422  s :     0.913422
      pz      :     0.007578  p :     0.022724
      px      :     0.004142
      py      :     0.011004
 10 H s       :     0.936425  s :     0.936425
      pz      :     0.007586  p :     0.023797
      px      :     0.011210
      py      :     0.005001
 11 H s       :     0.944344  s :     0.944344
      pz      :     0.004915  p :     0.024821
      px      :     0.009976
      py      :     0.009931
 12 H s       :     0.904884  s :     0.904884
      pz      :     0.012887  p :     0.023350
      px      :     0.004610
      py      :     0.005852
 13 H s       :     0.910573  s :     0.910573
      pz      :     0.004416  p :     0.023128
      px      :     0.005503
      py      :     0.013209

SPIN
  0 O s       :     0.012551  s :     0.012551
      pz      :     0.244335  p :     0.894364
      px      :     0.568836
      py      :     0.081192
      dz2     :     0.000057  d :     0.000241
      dxz     :     0.000179
      dyz     :    -0.000092
      dx2y2   :    -0.000031
      dxy     :     0.000128
  1 O s       :     0.005729  s :     0.005729
      pz      :     0.017226  p :     0.114667
      px      :     0.072345
      py      :     0.025096
      dz2     :    -0.000093  d :     0.000200
      dxz     :     0.000232
      dyz     :     0.000033
      dx2y2   :     0.000139
      dxy     :    -0.000110
  2 C s       :    -0.000161  s :    -0.000161
      pz      :    -0.004530  p :    -0.007577
      px      :    -0.001049
      py      :    -0.001998
      dz2     :     0.000142  d :     0.000467
      dxz     :     0.000209
      dyz     :     0.000009
      dx2y2   :    -0.000012
      dxy     :     0.000120
  3 C s       :    -0.000447  s :    -0.000447
      pz      :    -0.002285  p :    -0.007121
      px      :    -0.001506
      py      :    -0.003329
      dz2     :     0.000025  d :     0.000305
      dxz     :    -0.000005
      dyz     :    -0.000001
      dx2y2   :     0.000281
      dxy     :     0.000006
  4 C s       :    -0.000234  s :    -0.000234
      pz      :     0.000044  p :     0.000582
      px      :     0.001091
      py      :    -0.000553
      dz2     :     0.000002  d :     0.000027
      dxz     :     0.000003
      dyz     :    -0.000000
      dx2y2   :     0.000019
      dxy     :     0.000003
  5 C s       :     0.001443  s :     0.001443
      pz      :     0.002217  p :     0.005341
      px      :     0.001134
      py      :     0.001990
      dz2     :     0.000001  d :    -0.000018
      dxz     :    -0.000004
      dyz     :    -0.000005
      dx2y2   :    -0.000008
      dxy     :    -0.000002
  6 C s       :    -0.000098  s :    -0.000098
      pz      :     0.000252  p :     0.000174
      px      :    -0.000296
      py      :     0.000218
      dz2     :    -0.000021  d :     0.000011
      dxz     :     0.000021
      dyz     :    -0.000002
      dx2y2   :    -0.000007
      dxy     :     0.000019
  7 H s       :    -0.029409  s :    -0.029409
      pz      :     0.002015  p :     0.005223
      px      :     0.003279
      py      :    -0.000071
  8 H s       :     0.002657  s :     0.002657
      pz      :    -0.000029  p :    -0.000055
      px      :    -0.000019
      py      :    -0.000007
  9 H s       :     0.001480  s :     0.001480
      pz      :    -0.000032  p :    -0.000057
      px      :    -0.000005
      py      :    -0.000019
 10 H s       :     0.000010  s :     0.000010
      pz      :     0.000021  p :     0.000015
      px      :    -0.000001
      py      :    -0.000004
 11 H s       :    -0.000506  s :    -0.000506
      pz      :     0.000025  p :     0.000058
      px      :     0.000013
      py      :     0.000019
 12 H s       :     0.000264  s :     0.000264
      pz      :    -0.000003  p :     0.000006
      px      :     0.000004
      py      :     0.000004
 13 H s       :    -0.000126  s :    -0.000126
      pz      :    -0.000001  p :    -0.000004
      px      :    -0.000003
      py      :     0.000000


                     *******************************
                     * LOEWDIN POPULATION ANALYSIS *
                     *******************************

-------------------------------------------
LOEWDIN ATOMIC CHARGES AND SPIN POPULATIONS
-------------------------------------------
   0 O :   -0.155353    0.869175
   1 O :   -0.151601    0.129591
   2 C :    0.066856   -0.003580
   3 C :    0.069071   -0.004808
   4 C :   -0.054429    0.000859
   5 C :    0.002019    0.005039
   6 C :   -0.048304    0.000485
   7 H :    0.053963    0.001278
   8 H :    0.031376    0.001289
   9 H :    0.032504    0.000656
  10 H :    0.035496    0.000112
  11 H :    0.024494   -0.000116
  12 H :    0.048010    0.000132
  13 H :    0.045899   -0.000112

----------------------------------------------------
LOEWDIN REDUCED ORBITAL CHARGES AND SPIN POPULATIONS
----------------------------------------------------
CHARGE
  0 O s       :     3.686639  s :     3.686639
      pz      :     1.520760  p :     4.457122
      px      :     1.378877
      py      :     1.557484
      dz2     :     0.000202  d :     0.011592
      dxz     :     0.000686
      dyz     :     0.006630
      dx2y2   :     0.003286
      dxy     :     0.000787
  1 O s       :     3.587082  s :     3.587082
      pz      :     1.405611  p :     4.534973
      px      :     1.617455
      py      :     1.511907
      dz2     :     0.008495  d :     0.029546
      dxz     :     0.003729
      dyz     :     0.008647
      dx2y2   :     0.003565
      dxy     :     0.005109
  2 C s       :     2.863543  s :     2.863543
      pz      :     0.859373  p :     2.916075
      px      :     1.056305
      py      :     1.000397
      dz2     :     0.041919  d :     0.153526
      dxz     :     0.037295
      dyz     :     0.038381
      dx2y2   :     0.015570
      dxy     :     0.020361
  3 C s       :     2.869965  s :     2.869965
      pz      :     1.009355  p :     2.914413
      px      :     0.993713
      py      :     0.911346
      dz2     :     0.017445  d :     0.146551
      dxz     :     0.025522
      dyz     :     0.027947
      dx2y2   :     0.037595
      dxy     :     0.038042
  4 C s       :     2.880840  s :     2.880840
      pz      :     1.027074  p :     3.085436
      px      :     1.019206
      py      :     1.039156
      dz2     :     0.013031  d :     0.088154
      dxz     :     0.020493
      dyz     :     0.013920
      dx2y2   :     0.021614
      dxy     :     0.019096
  5 C s       :     2.880685  s :     2.880685
      pz      :     0.997854  p :     3.029265
      px      :     1.001926
      py      :     1.029485
      dz2     :     0.016044  d :     0.088030
      dxz     :     0.015525
      dyz     :     0.014434
      dx2y2   :     0.019582
      dxy     :     0.022445
  6 C s       :     2.845070  s :     2.845070
      pz      :     1.039132  p :     3.115013
      px      :     1.017745
      py      :     1.058135
      dz2     :     0.019314  d :     0.088222
      dxz     :     0.019635
      dyz     :     0.013187
      dx2y2   :     0.019076
      dxy     :     0.017011
  7 H s       :     0.765763  s :     0.765763
      pz      :     0.060025  p :     0.180274
      px      :     0.038558
      py      :     0.081692
  8 H s       :     0.896944  s :     0.896944
      pz      :     0.010678  p :     0.071680
      px      :     0.044452
      py      :     0.016551
  9 H s       :     0.895956  s :     0.895956
      pz      :     0.023056  p :     0.071540
      px      :     0.014999
      py      :     0.033484
 10 H s       :     0.894944  s :     0.894944
      pz      :     0.021741  p :     0.069560
      px      :     0.033081
      py      :     0.014738
 11 H s       :     0.900487  s :     0.900487
      pz      :     0.016217  p :     0.075019
      px      :     0.030755
      py      :     0.028047
 12 H s       :     0.884733  s :     0.884733
      pz      :     0.037223  p :     0.067257
      px      :     0.013578
      py      :     0.016455
 13 H s       :     0.886624  s :     0.886624
      pz      :     0.012707  p :     0.067478
      px      :     0.016977
      py      :     0.037794

SPIN
  0 O s       :     0.009421  s :     0.009421
      pz      :     0.234932  p :     0.859707
      px      :     0.551679
      py      :     0.073096
      dz2     :     0.000009  d :     0.000047
      dxz     :     0.000200
      dyz     :    -0.000202
      dx2y2   :     0.000050
      dxy     :    -0.000010
  1 O s       :     0.008604  s :     0.008604
      pz      :     0.017736  p :     0.120750
      px      :     0.077510
      py      :     0.025505
      dz2     :    -0.000114  d :     0.000236
      dxz     :     0.000242
      dyz     :     0.000033
      dx2y2   :     0.000132
      dxy     :    -0.000056
  2 C s       :    -0.000357  s :    -0.000357
      pz      :    -0.002449  p :    -0.004499
      px      :    -0.000292
      py      :    -0.001758
      dz2     :     0.000543  d :     0.001276
      dxz     :     0.000497
      dyz     :     0.000022
      dx2y2   :    -0.000006
      dxy     :     0.000220
  3 C s       :    -0.000424  s :    -0.000424
      pz      :    -0.002008  p :    -0.005201
      px      :    -0.000467
      py      :    -0.002727
      dz2     :     0.000028  d :     0.000817
      dxz     :     0.000018
      dyz     :     0.000051
      dx2y2   :     0.000627
      dxy     :     0.000093
  4 C s       :     0.000085  s :     0.000085
      pz      :     0.000481  p :     0.000682
      px      :     0.000757
      py      :    -0.000555
      dz2     :     0.000003  d :     0.000092
      dxz     :    -0.000004
      dyz     :     0.000002
      dx2y2   :     0.000070
      dxy     :     0.000021
  5 C s       :     0.000456  s :     0.000456
      pz      :     0.002025  p :     0.004635
      px      :     0.001269
      py      :     0.001340
      dz2     :    -0.000009  d :    -0.000051
      dxz     :     0.000009
      dyz     :    -0.000000
      dx2y2   :    -0.000019
      dxy     :    -0.000032
  6 C s       :     0.000134  s :     0.000134
      pz      :     0.000307  p :     0.000307
      px      :    -0.000107
      py      :     0.000107
      dz2     :    -0.000023  d :     0.000043
      dxz     :     0.000048
      dyz     :    -0.000004
      dx2y2   :    -0.000016
      dxy     :     0.000038
  7 H s       :    -0.019714  s :    -0.019714
      pz      :     0.007785  p :     0.020992
      px      :     0.011175
      py      :     0.002031
  8 H s       :     0.001440  s :     0.001440
      pz      :    -0.000138  p :    -0.000151
      px      :     0.000024
      py      :    -0.000036
  9 H s       :     0.000831  s :     0.000831
      pz      :    -0.000072  p :    -0.000176
      px      :    -0.000016
      py      :    -0.000087
 10 H s       :     0.000071  s :     0.000071
      pz      :     0.000033  p :     0.000040
      px      :     0.000013
      py      :    -0.000005
 11 H s       :    -0.000289  s :    -0.000289
      pz      :     0.000075  p :     0.000173
      px      :     0.000054
      py      :     0.000043
 12 H s       :     0.000114  s :     0.000114
      pz      :     0.000003  p :     0.000017
      px      :     0.000006
      py      :     0.000009
 13 H s       :    -0.000101  s :    -0.000101
      pz      :     0.000006  p :    -0.000011
      px      :    -0.000013
      py      :    -0.000004


                      *****************************
                      * MAYER POPULATION ANALYSIS *
                      *****************************

  NA   - Mulliken gross atomic population
  ZA   - Total nuclear charge
  QA   - Mulliken gross atomic charge
  VA   - Mayer's total valence
  BVA  - Mayer's bonded valence
  FA   - Mayer's free valence

  ATOM       NA         ZA         QA         VA         BVA        FA
  0 O      8.2595     8.0000    -0.2595     2.0231     1.2518     0.7713
  1 O      8.3397     8.0000    -0.3397     2.0597     2.0447     0.0150
  2 C      5.9923     6.0000     0.0077     3.9748     3.9747     0.0000
  3 C      5.9258     6.0000     0.0742     3.8999     3.8998     0.0000
  4 C      5.9654     6.0000     0.0346     3.7740     3.7740     0.0000
  5 C      6.1233     6.0000    -0.1233     3.9630     3.9629     0.0000
  6 C      5.9148     6.0000     0.0852     3.8115     3.8115     0.0000
  7 H      0.8226     1.0000     0.1774     1.0089     1.0077     0.0012
  8 H      0.9292     1.0000     0.0708     1.0094     1.0094     0.0000
  9 H      0.9361     1.0000     0.0639     1.0098     1.0098     0.0000
 10 H      0.9602     1.0000     0.0398     0.9880     0.9880     0.0000
 11 H      0.9692     1.0000     0.0308     0.9908     0.9908     0.0000
 12 H      0.9282     1.0000     0.0718     0.9781     0.9781     0.0000
 13 H      0.9337     1.0000     0.0663     0.9824     0.9824     0.0000

  Mayer bond orders larger than 0.100000
B(  0-O ,  1-O ) :   0.1743 B(  0-O ,  7-H ) :   0.9821 B(  1-O ,  2-C ) :   0.9172 
B(  1-O ,  3-C ) :   0.8796 B(  2-C ,  3-C ) :   1.0269 B(  2-C ,  6-C ) :   1.0013 
B(  2-C ,  8-H ) :   0.9579 B(  3-C ,  4-C ) :   0.9788 B(  3-C ,  9-H ) :   0.9696 
B(  4-C ,  5-C ) :   1.8220 B(  4-C , 10-H ) :   0.9945 B(  5-C ,  6-C ) :   1.0118 
B(  5-C , 11-H ) :   0.9771 B(  6-C , 12-H ) :   0.9272 B(  6-C , 13-H ) :   0.9290 



------------------
HIRSHFELD ANALYSIS
------------------

Total integrated alpha density =     27.000018708
Total integrated beta density  =     26.000017603

  ATOM     CHARGE      SPIN    
   0 O   -0.244551    0.836434
   1 O   -0.156157    0.130166
   2 C    0.053203    0.001080
   3 C    0.047454   -0.000200
   4 C   -0.048211    0.001711
   5 C   -0.020963    0.005071
   6 C   -0.039406    0.001097
   7 H    0.140906    0.021312
   8 H    0.049740    0.001827
   9 H    0.052110    0.001042
  10 H    0.044996    0.000171
  11 H    0.040893    0.000138
  12 H    0.039450    0.000179
  13 H    0.040500   -0.000027

  TOTAL  -0.000036    1.000001

-------
TIMINGS
-------

Total SCF time: 0 days 0 hours 1 min 1 sec 

Total time                  ....      61.842 sec
Sum of individual times     ....      61.687 sec  ( 99.7%)

Fock matrix formation       ....      59.829 sec  ( 96.7%)
  Split-RI-J                ....       3.663 sec  (  6.1% of F)
  Chain of spheres X        ....      40.908 sec  ( 68.4% of F)
  XC integration            ....      15.260 sec  ( 25.5% of F)
    Basis function eval.    ....       4.509 sec  ( 29.5% of XC)
    Density eval.           ....       4.217 sec  ( 27.6% of XC)
    XC-Functional eval.     ....       1.517 sec  (  9.9% of XC)
    XC-Potential eval.      ....       4.661 sec  ( 30.5% of XC)
Diagonalization             ....       0.100 sec  (  0.2%)
Density matrix formation    ....       0.008 sec  (  0.0%)
Population analysis         ....       0.349 sec  (  0.6%)
Initial guess               ....       0.214 sec  (  0.3%)
Orbital Transformation      ....       0.000 sec  (  0.0%)
Orbital Orthonormalization  ....       0.000 sec  (  0.0%)
DIIS solution               ....       0.026 sec  (  0.0%)
Grid generation             ....       1.161 sec  (  1.9%)

Maximum memory used throughout the entire SCF-calculation: 63.4 MB


-------------------------------------------------------------------------------
                          DFT DISPERSION CORRECTION                            
                                                                               
                              DFTD3 V3.1  Rev 1                                
                          USING Becke-Johnson damping                          
-------------------------------------------------------------------------------
The PBE0 functional is recognized
Active option DFTDOPT                   ...         4   

molecular C6(AA) [au] = 1743.171498 


            DFT-D V3
 parameters
 s6 scaling factor         :     1.0000 
 a1 scaling factor         :     0.4145 
 s8 scaling factor         :     1.2177 
 a2 scaling factor         :     4.8593 
 ad hoc parameters k1-k3   :    16.0000     1.3333    -4.0000 

 Edisp/kcal,au: -6.105610100824  -0.009729907996 
 E6   /kcal   :  -3.883087828 
 E8   /kcal   :  -2.222522273 
 % E8         :  36.401313482 

-------------------------   ----------------
Dispersion correction           -0.009729908
-------------------------   ----------------


-------------------------   --------------------
FINAL SINGLE POINT ENERGY      -344.386009631993
-------------------------   --------------------

------------------------------------------------------------------------------
                         ORCA SCF GRADIENT CALCULATION
------------------------------------------------------------------------------

 ... reading COSX grid (gridx3)
Gradient of the Kohn-Sham DFT energy:
Kohn-Sham wavefunction type      ... UKS
Hartree-Fock exchange scaling    ...    0.250
Number of operators              ...    2
Number of atoms                  ...   14
Basis set dimensions             ...  133
Integral neglect threshold       ... 2.5e-11
Integral primitive cutoff        ... 2.5e-12
SHARK Integral package           ... ON

Nuc. rep. gradient       (SHARK) ... done (  0.0 sec)
HCore & Overlap gradient (SHARK) ... done (  0.1 sec)
RI-J gradient            (SHARK) ... done (  0.6 sec)
COSX-gradient                    ... done (  6.6 sec)
Exchange-correlation gradient    ... done
Dispersion correction            ... done

------------------
CARTESIAN GRADIENT
------------------

   1   O   :    0.005221819   -0.000297853   -0.004945232
   2   O   :   -0.002641592   -0.018037246    0.014453311
   3   C   :    0.004042934    0.007319671   -0.016270135
   4   C   :    0.007777841    0.013145520   -0.007506352
   5   C   :   -0.001660749    0.002974749   -0.005306266
   6   C   :    0.016046675   -0.009735581    0.008149455
   7   C   :   -0.011054676    0.001504359   -0.006032879
   8   H   :    0.001550949   -0.003725812    0.001828129
   9   H   :   -0.004242707   -0.002166620    0.003675484
  10   H   :   -0.003303858   -0.000964274    0.003922757
  11   H   :    0.004456994    0.001790257    0.000614486
  12   H   :   -0.018623822    0.008308377    0.008090685
  13   H   :    0.006104731   -0.000925176   -0.000295118
  14   H   :   -0.003781775    0.000898306   -0.000287354

Difference to translation invariance:
           :   -0.0001072360    0.0000886768    0.0000909697

Difference to rotation invariance:
           :   -0.0003842609    0.0001706305   -0.0000292713

Norm of the cartesian gradient     ...    0.0497783615
RMS gradient                       ...    0.0076809679
MAX gradient                       ...    0.0186238225

-------
TIMINGS
-------

Total SCF gradient time            ...       11.039 sec

One electron gradient       ....       0.096 sec  (  0.9%)
RI-J Coulomb gradient       ....       0.585 sec  (  5.3%)
COSX gradient               ....       6.633 sec  ( 60.1%)
XC gradient                 ....       3.426 sec  ( 31.0%)

Maximum memory used throughout the entire SCFGRAD-calculation: 50.3 MB

                            ***************************************
                            *     ORCA property calculations      *
                            ***************************************

                                    ---------------------
                                    Active property flags
                                    ---------------------
   (+) Dipole Moment


------------------------------------------------------------------------------
                       ORCA ELECTRIC PROPERTIES CALCULATION
------------------------------------------------------------------------------

Dipole Moment Calculation                       ... on
Quadrupole Moment Calculation                   ... off
Polarizability Calculation                      ... off
GBWName                                         ... 20_2_orca.gbw
Electron density                                ... 20_2_orca.scfp
The origin for moment calculation is the CENTER OF MASS  = (-0.320794,  0.122326  0.417429)

-------------
DIPOLE MOMENT
-------------
                                X             Y             Z
Electronic contribution:     -0.87976       0.63349       1.88352
Nuclear contribution   :      1.49181      -0.87967      -2.37127
                        -----------------------------------------
Total Dipole Moment    :      0.61205      -0.24618      -0.48775
                        -----------------------------------------
Magnitude (a.u.)       :      0.82044
Magnitude (Debye)      :      2.08538



--------------------
Rotational spectrum 
--------------------
 
Rotational constants in cm-1:     0.205518     0.065597     0.056192 
Rotational constants in MHz :  6161.261847  1966.549842  1684.584646 

 Dipole components along the rotational axes: 
x,y,z [a.u.] :     0.814287     0.085492     0.052369 
x,y,z [Debye]:     2.069753     0.217303     0.133111 

 

Timings for individual modules:

Sum of individual times         ...       73.095 sec (=   1.218 min)
GTO integral calculation        ...        0.161 sec (=   0.003 min)   0.2 %
SCF iterations                  ...       61.867 sec (=   1.031 min)  84.6 %
SCF Gradient evaluation         ...       11.067 sec (=   0.184 min)  15.1 %
                             ****ORCA TERMINATED NORMALLY****
TOTAL RUN TIME: 0 days 0 hours 1 minutes 13 seconds 248 msec
