      -----------------------------------------------------------      
     |                   =====================                   |     
     |                           x T B                           |     
     |                   =====================                   |     
     |                         S. Grimme                         |     
     |          Mulliken Center for Theoretical Chemistry        |     
     |                    University of Bonn                     |     
      -----------------------------------------------------------      

   * xtb version 6.6.1 (8d0f1dd) compiled by 'conda@1efc2f54142f' on 2023-08-01

   xtb is free software: you can redistribute it and/or modify it under
   the terms of the GNU Lesser General Public License as published by
   the Free Software Foundation, either version 3 of the License, or
   (at your option) any later version.
   
   xtb is distributed in the hope that it will be useful,
   but WITHOUT ANY WARRANTY; without even the implied warranty of
   MERCHANTABILITY or FITNESS FOR A PARTICULAR PURPOSE.  See the
   GNU Lesser General Public License for more details.
   
   Cite this work as:
   * C. Bannwarth, E. Caldeweyher, S. Ehlert, A. Hansen, P. Pracht,
     J. Seibert, S. Spicher, S. Grimme, WIREs Comput. Mol. Sci., 2020, 11,
     e01493. DOI: 10.1002/wcms.1493
   
   for GFN2-xTB:
   * C. Bannwarth, S. Ehlert and S. Grimme., J. Chem. Theory Comput., 2019,
     15, 1652-1671. DOI: 10.1021/acs.jctc.8b01176
   for GFN1-xTB:
   * S. Grimme, C. Bannwarth, P. Shushkov, J. Chem. Theory Comput., 2017,
     13, 1989-2009. DOI: 10.1021/acs.jctc.7b00118
   for GFN0-xTB:
   * P. Pracht, E. Caldeweyher, S. Ehlert, S. Grimme, ChemRxiv, 2019, preprint.
     DOI: 10.26434/chemrxiv.8326202.v1
   for GFN-FF:
   * S. Spicher and S. Grimme, Angew. Chem. Int. Ed., 2020, 59, 15665-15673.
     DOI: 10.1002/anie.202004239
   
   for ALPB and GBSA implicit solvation:
   * S. Ehlert, M. Stahn, S. Spicher, S. Grimme, J. Chem. Theory Comput.,
     2021, 17, 4250-4261. DOI: 10.1021/acs.jctc.1c00471
   
   for DFT-D4:
   * E. Caldeweyher, C. Bannwarth and S. Grimme, J. Chem. Phys., 2017,
     147, 034112. DOI: 10.1063/1.4993215
   * E. Caldeweyher, S. Ehlert, A. Hansen, H. Neugebauer, S. Spicher,
     C. Bannwarth and S. Grimme, J. Chem. Phys., 2019, 150, 154122.
     DOI: 10.1063/1.5090222
   * E. Caldeweyher, J.-M. Mewes, S. Ehlert and S. Grimme, Phys. Chem. Chem. Phys.
     2020, 22, 8499-8512. DOI: 10.1039/D0CP00502A
   
   for sTDA-xTB:
   * S. Grimme and C. Bannwarth, J. Chem. Phys., 2016, 145, 054103.
     DOI: 10.1063/1.4959605
   
   in the mass-spec context:
   * V. Asgeirsson, C. Bauer and S. Grimme, Chem. Sci., 2017, 8, 4879.
     DOI: 10.1039/c7sc00601b
   * J. Koopman and S. Grimme, ACS Omega 2019, 4, 12, 15120-15133.
     DOI: 10.1021/acsomega.9b02011
   
   for metadynamics refer to:
   * S. Grimme, J. Chem. Theory Comput., 2019, 155, 2847-2862
     DOI: 10.1021/acs.jctc.9b00143
   
   for SPH calculations refer to:
   * S. Spicher and S. Grimme, J. Chem. Theory Comput., 2021, 17, 1701-1714
     DOI: 10.1021/acs.jctc.0c01306
   
   with help from (in alphabetical order)
   P. Atkinson, C. Bannwarth, F. Bohle, G. Brandenburg, E. Caldeweyher
   M. Checinski, S. Dohm, S. Ehlert, S. Ehrlich, I. Gerasimov, C. Hölzer
   A. Katbashev, J. Koopman, C. Lavigne, S. Lehtola, F. März, M. Müller,
   F. Musil, H. Neugebauer, J. Pisarek, C. Plett, P. Pracht, F. Pultar,
   J. Seibert, P. Shushkov, S. Spicher, M. Stahn, M. Steiner, T. Strunk,
   J. Stückrath, T. Rose, and J. Unsleber
   
 * started run on 2025/05/23 at 13:10:40.466     

           -------------------------------------------------
          |                Calculation Setup                |
           -------------------------------------------------

          program call               : /gpfs/fs1/home/copan/code/autode-practice/.pixi/envs/default/bin/xtb path_opt3_xtb.xyz --chrg 0 --uhf 1 --opt --input xcontrol_path_opt3_xtb
          hostname                   : csed-0021
          coordinate file            : path_opt3_xtb.xyz
          omp threads                :                     8

   ID    Z sym.   atoms
    1    8 O      1, 2
    2    6 C      3-7
    3    1 H      8-16
constraining bond 2 5 to    2.0371000 Å, actual value:    2.3347333 Å
constraining bond 1 2 to    1.7435000 Å, actual value:    1.6919206 Å

molecular fragmentation (1/2 indicates fragments):
1122222222222222
# atoms in fragment 1/2:     2    14
 fragment masses (1/2) :       32.00       69.13
CMA distance (Bohr)    :   4.740
constraining FC (au)   :  2.0000

           -------------------------------------------------
          |                 G F N 2 - x T B                 |
           -------------------------------------------------

        Reference                      10.1021/acs.jctc.8b01176
      * Hamiltonian:
        H0-scaling (s, p, d)           1.850000    2.230000    2.230000
        zeta-weighting                 0.500000
      * Dispersion:
        s8                             2.700000
        a1                             0.520000
        a2                             5.000000
        s9                             5.000000
      * Repulsion:
        kExp                           1.500000    1.000000
        rExp                           1.000000
      * Coulomb:
        alpha                          2.000000
        third order                    shell-resolved
        anisotropic                    true
        a3                             3.000000
        a5                             4.000000
        cn-shift                       1.200000
        cn-exp                         4.000000
        max-rad                        5.000000


          ...................................................
          :                      SETUP                      :
          :.................................................:
          :  # basis functions                  37          :
          :  # atomic orbitals                  37          :
          :  # shells                           23          :
          :  # electrons                        41          :
          :  max. iterations                   250          :
          :  Hamiltonian                  GFN2-xTB          :
          :  restarted?                      false          :
          :  GBSA solvation                  false          :
          :  PC potential                    false          :
          :  electronic temp.          300.0000000     K    :
          :  accuracy                    1.0000000          :
          :  -> integral cutoff          0.2500000E+02      :
          :  -> integral neglect         0.1000000E-07      :
          :  -> SCF convergence          0.1000000E-05 Eh   :
          :  -> wf. convergence          0.1000000E-03 e    :
          :  Broyden damping             0.4000000          :
          ...................................................

 iter      E             dE          RMSdq      gap      omega  full diag
   1    -23.4485330 -0.234485E+02  0.339E+00    0.93       0.0  T
   2    -23.4690176 -0.204846E-01  0.181E+00    1.79       1.0  T
   3    -23.4148903  0.541273E-01  0.205E+00    0.81       1.0  T
   4    -23.4717480 -0.568577E-01  0.550E-01    1.56       1.0  T
   5    -23.4780305 -0.628249E-02  0.198E-01    1.24       1.0  T
   6    -23.4786708 -0.640286E-03  0.851E-02    1.16       1.0  T
   7    -23.4787321 -0.613310E-04  0.307E-02    1.10       1.0  T
   8    -23.4787506 -0.184685E-04  0.559E-03    1.12       4.5  T
   9    -23.4787508 -0.171618E-06  0.201E-03    1.12      12.4  T
  10    -23.4787508  0.214077E-08  0.131E-03    1.12      19.1  T
  11    -23.4787508 -0.113419E-07  0.332E-04    1.12      75.2  T
  12    -23.4787508 -0.568036E-09  0.157E-04    1.12     159.4  T

   *** convergence criteria satisfied after 12 iterations ***

         #    Occupation            Energy/Eh            Energy/eV
      -------------------------------------------------------------
         1        2.0000           -0.6901864             -18.7809
       ...           ...                  ...                  ...
        15        2.0000           -0.4649067             -12.6508
        16        2.0000           -0.4575444             -12.4504
        17        2.0000           -0.4546755             -12.3724
        18        2.0000           -0.4472061             -12.1691
        19        2.0000           -0.4409264             -11.9982
        20        2.0000           -0.4058666             -11.0442
        21        1.0000           -0.3159799              -8.5982 (HOMO)
        22                         -0.2748921              -7.4802 (LUMO)
        23                          0.0501511               1.3647
        24                          0.0688760               1.8742
        25                          0.0766843               2.0867
        26                          0.0998433               2.7169
       ...                                ...                  ...
        37                          0.3803477              10.3498
      -------------------------------------------------------------
                  HL-Gap            0.0410878 Eh            1.1181 eV
             Fermi-level           -0.3281796 Eh           -8.9302 eV

 SCC (total)                   0 d,  0 h,  0 min,  0.011 sec
 SCC setup                      ...        0 min,  0.000 sec (  1.652%)
 Dispersion                     ...        0 min,  0.000 sec (  1.230%)
 classical contributions        ...        0 min,  0.000 sec (  1.994%)
 integral evaluation            ...        0 min,  0.000 sec (  4.310%)
 iterations                     ...        0 min,  0.008 sec ( 78.795%)
 molecular gradient             ...        0 min,  0.001 sec ( 10.012%)
 printout                       ...        0 min,  0.000 sec (  1.757%)

         :::::::::::::::::::::::::::::::::::::::::::::::::::::
         ::                     SUMMARY                     ::
         :::::::::::::::::::::::::::::::::::::::::::::::::::::
         :: total energy             -22.591731354053 Eh    ::
         :: gradient norm              3.425817912264 Eh/a0 ::
         :: HOMO-LUMO gap              1.118055058182 eV    ::
         ::.................................................::
         :: SCC energy               -23.478750769569 Eh    ::
         :: -> isotropic ES            0.038101555816 Eh    ::
         :: -> anisotropic ES         -0.004508299393 Eh    ::
         :: -> anisotropic XC          0.004754446087 Eh    ::
         :: -> dispersion             -0.009864868226 Eh    ::
         :: repulsion energy           0.235299880150 Eh    ::
         :: add. restraining           0.651690864425 Eh    ::
         :: total charge               0.000000000000 e     ::
         :::::::::::::::::::::::::::::::::::::::::::::::::::::

      ----------------------------------------------------------- 
     |                   =====================                   |
     |                        A N C O P T                        |
     |                   =====================                   |
     |               Approximate Normal Coordinate               |
     |                Rational Function Optimizer                |
      ----------------------------------------------------------- 

          ...................................................
          :                      SETUP                      :
          :.................................................:
          :   optimization level            normal          :
          :   max. optcycles                   200          :
          :   ANC micro-cycles                  20          :
          :   degrees of freedom                42          :
          :.................................................:
          :   RF solver                   davidson          :
          :   write xtbopt.log                true          :
          :   linear?                        false          :
          :   energy convergence         0.5000000E-05 Eh   :
          :   grad. convergence          0.1000000E-02 Eh/α :
          :   maxmium RF displ.          1.0000000          :
          :   Hlow (freq-cutoff)         0.1000000E-01      :
          :   Hmax (freq-cutoff)         5.0000000          :
          :   S6 in model hess.         20.0000000          :
          ...................................................

generating ANC from model Hessian ...
Using Lindh-Hessian (1995)
 Shifting diagonal of input Hessian by   0.14059260020844802     
 Lowest  eigenvalues of input Hessian
    0.010000    0.099494    0.000000    0.000000    0.000000    0.000000
    0.000000    0.000000    0.144983    0.157215    0.158953    0.174502
    0.186718    0.188053    0.189474    0.192507    0.195015    0.196707
 Highest eigenvalues
    1.404070    1.468909    1.903866    2.039565    4.701241   12.518634


........................................................................
.............................. CYCLE    1 ..............................
........................................................................

 iter      E             dE          RMSdq      gap      omega  full diag
   1    -23.4787508 -0.234788E+02  0.835E-05    1.12       0.0  T
   2    -23.4787508  0.188294E-10  0.751E-05    1.12     332.7  T
   3    -23.4787508 -0.725571E-10  0.445E-05    1.12     561.5  T
     SCC iter.                  ...        0 min,  0.002 sec
     gradient                   ...        0 min,  0.001 sec
 * total energy  :   -22.5917314 Eh     change       -0.2174652E-09 Eh
   gradient norm :     3.4258162 Eh/α   predicted     0.0000000E+00 (-100.00%)
   displ. norm   :     0.5147958 α      lambda       -0.1758318E+01
   maximum displ.:     0.4607089 α      in ANC's #42, #41, #32, ...

........................................................................
.............................. CYCLE    2 ..............................
........................................................................

 iter      E             dE          RMSdq      gap      omega  full diag
   1    -23.3617712 -0.233618E+02  0.199E+00    2.70       0.0  T
   2    -23.1154954  0.246276E+00  0.377E+00    2.22       1.0  T
   3    -23.4478462 -0.332351E+00  0.622E-01    2.19       1.0  T
   4    -23.4539209 -0.607462E-02  0.389E-01    2.08       1.0  T
   5    -23.4540151 -0.942858E-04  0.254E-01    2.09       1.0  T
   6    -23.4540609 -0.458046E-04  0.523E-02    2.09       1.0  T
   7    -23.4540810 -0.200124E-04  0.263E-02    2.09       1.0  T
   8    -23.4540833 -0.230194E-05  0.172E-02    2.09       1.4  T
   9    -23.4540890 -0.576577E-05  0.440E-03    2.09       5.7  T
  10    -23.4540893 -0.272736E-06  0.152E-03    2.09      16.4  T
  11    -23.4540893 -0.202423E-07  0.444E-04    2.09      56.4  T
  12    -23.4540893 -0.340550E-08  0.731E-05    2.09     341.8  T
     SCC iter.                  ...        0 min,  0.007 sec
     gradient                   ...        0 min,  0.001 sec
 * total energy  :   -22.9701748 Eh     change       -0.3784434E+00 Eh
   gradient norm :     2.3992602 Eh/α   predicted    -0.1112149E+01 ( 193.87%)
   displ. norm   :     0.2326507 α      lambda       -0.5029952E+00
   maximum displ.:     0.1935676 α      in ANC's #42, #41, #1, ...

........................................................................
.............................. CYCLE    3 ..............................
........................................................................

 iter      E             dE          RMSdq      gap      omega  full diag
   1    -23.4445656 -0.234446E+02  0.955E-01    2.45       0.0  T
   2    -23.4339343  0.106313E-01  0.122E+00    2.02       1.0  T
   3    -23.4658369 -0.319026E-01  0.248E-01    2.11       1.0  T
   4    -23.4658120  0.248905E-04  0.137E-01    2.08       1.0  T
   5    -23.4658914 -0.793537E-04  0.411E-02    2.09       1.0  T
   6    -23.4659117 -0.202922E-04  0.915E-03    2.10       2.7  T
   7    -23.4659122 -0.531237E-06  0.368E-03    2.10       6.8  T
   8    -23.4659122 -0.210977E-07  0.125E-03    2.10      20.0  T
   9    -23.4659122 -0.648969E-08  0.404E-04    2.10      61.9  T
  10    -23.4659122 -0.541782E-09  0.137E-04    2.10     182.3  T
     SCC iter.                  ...        0 min,  0.006 sec
     gradient                   ...        0 min,  0.001 sec
 * total energy  :   -23.2320852 Eh     change       -0.2619104E+00 Eh
   gradient norm :     0.1036333 Eh/α   predicted    -0.2651101E+00 (   1.22%)
   displ. norm   :     0.1691112 α      lambda       -0.5042924E-02
   maximum displ.:     0.1255711 α      in ANC's #1, #6, #13, ...

........................................................................
.............................. CYCLE    4 ..............................
........................................................................

 iter      E             dE          RMSdq      gap      omega  full diag
   1    -23.4700456 -0.234700E+02  0.197E-01    2.21       0.0  T
   2    -23.4700894 -0.438664E-04  0.119E-01    2.21       1.0  T
   3    -23.4700725  0.169038E-04  0.539E-02    2.22       1.0  T
   4    -23.4700831 -0.105134E-04  0.268E-02    2.21       1.0  T
   5    -23.4700987 -0.155941E-04  0.532E-03    2.22       4.7  T
   6    -23.4700988 -0.105808E-06  0.169E-03    2.22      14.8  T
   7    -23.4700988 -0.449131E-08  0.554E-04    2.22      45.1  T
   8    -23.4700988 -0.606580E-09  0.175E-04    2.22     142.7  T
     SCC iter.                  ...        0 min,  0.005 sec
     gradient                   ...        0 min,  0.001 sec
 * total energy  :   -23.2353780 Eh     change       -0.3292749E-02 Eh
   gradient norm :     0.0285674 Eh/α   predicted    -0.2593574E-02 ( -21.23%)
   displ. norm   :     0.3482663 α      lambda       -0.4874288E-02
   maximum displ.:     0.2800038 α      in ANC's #1, #6, #4, ...

........................................................................
.............................. CYCLE    5 ..............................
........................................................................

 iter      E             dE          RMSdq      gap      omega  full diag
   1    -23.4738118 -0.234738E+02  0.316E-01    2.19       0.0  T
   2    -23.4738134 -0.155596E-05  0.200E-01    2.16       1.0  T
   3    -23.4734454  0.367995E-03  0.160E-01    2.20       1.0  T
   4    -23.4738974 -0.452049E-03  0.215E-02    2.17       1.2  T
   5    -23.4739028 -0.540596E-05  0.840E-03    2.17       3.0  T
   6    -23.4739029 -0.324091E-07  0.191E-03    2.17      13.1  T
   7    -23.4739029 -0.145226E-07  0.700E-04    2.17      35.7  T
   8    -23.4739029 -0.766153E-09  0.200E-04    2.17     124.9  T
     SCC iter.                  ...        0 min,  0.004 sec
     gradient                   ...        0 min,  0.001 sec
 * total energy  :   -23.2375880 Eh     change       -0.2210048E-02 Eh
   gradient norm :     0.0504247 Eh/α   predicted    -0.2732753E-02 (  23.65%)
   displ. norm   :     0.1699666 α      lambda       -0.1326116E-02
   maximum displ.:     0.1409606 α      in ANC's #1, #4, #2, ...

........................................................................
.............................. CYCLE    6 ..............................
........................................................................

 iter      E             dE          RMSdq      gap      omega  full diag
   1    -23.4719703 -0.234720E+02  0.161E-01    2.06       0.0  T
   2    -23.4719457  0.245901E-04  0.108E-01    2.08       1.0  T
   3    -23.4718939  0.517728E-04  0.938E-02    2.06       1.0  T
   4    -23.4720211 -0.127182E-03  0.740E-03    2.07       3.4  T
   5    -23.4720214 -0.284555E-06  0.362E-03    2.07       6.9  T
   6    -23.4720214 -0.115259E-07  0.106E-03    2.07      23.5  T
   7    -23.4720214 -0.261089E-08  0.266E-04    2.07      94.1  T
   8    -23.4720214 -0.950564E-10  0.952E-05    2.07     262.5  T
     SCC iter.                  ...        0 min,  0.005 sec
     gradient                   ...        0 min,  0.001 sec
 * total energy  :   -23.2381977 Eh     change       -0.6096651E-03 Eh
   gradient norm :     0.0542656 Eh/α   predicted    -0.6822144E-03 (  11.90%)
   displ. norm   :     0.1932669 α      lambda       -0.2241850E-02
   maximum displ.:     0.1041261 α      in ANC's #1, #4, #2, ...

........................................................................
.............................. CYCLE    7 ..............................
........................................................................

 iter      E             dE          RMSdq      gap      omega  full diag
   1    -23.4743844 -0.234744E+02  0.234E-01    2.13       0.0  T
   2    -23.4743867 -0.231396E-05  0.136E-01    2.15       1.0  T
   3    -23.4741796  0.207117E-03  0.118E-01    2.12       1.0  T
   4    -23.4744209 -0.241297E-03  0.134E-02    2.14       1.9  T
   5    -23.4744234 -0.253548E-05  0.438E-03    2.14       5.7  T
   6    -23.4744234 -0.108902E-07  0.154E-03    2.14      16.2  T
   7    -23.4744234 -0.495058E-08  0.466E-04    2.14      53.6  T
   8    -23.4744234 -0.104333E-08  0.153E-04    2.14     162.9  T
     SCC iter.                  ...        0 min,  0.005 sec
     gradient                   ...        0 min,  0.001 sec
 * total energy  :   -23.2390633 Eh     change       -0.8655969E-03 Eh
   gradient norm :     0.0252650 Eh/α   predicted    -0.1162787E-02 (  34.33%)
   displ. norm   :     0.0458927 α      lambda       -0.4713215E-03
   maximum displ.:     0.0238732 α      in ANC's #4, #1, #6, ...

........................................................................
.............................. CYCLE    8 ..............................
........................................................................

 iter      E             dE          RMSdq      gap      omega  full diag
   1    -23.4734602 -0.234735E+02  0.479E-02    2.15       0.0  T
   2    -23.4734601  0.140575E-06  0.303E-02    2.14       1.0  T
   3    -23.4734552  0.493676E-05  0.265E-02    2.15       1.0  T
   4    -23.4734654 -0.102598E-04  0.444E-03    2.14       5.6  T
   5    -23.4734656 -0.155783E-06  0.152E-03    2.15      16.4  T
   6    -23.4734656 -0.314364E-08  0.661E-04    2.15      37.8  T
   7    -23.4734656 -0.523283E-09  0.190E-04    2.15     131.4  T
     SCC iter.                  ...        0 min,  0.004 sec
     gradient                   ...        0 min,  0.001 sec
 * total energy  :   -23.2394143 Eh     change       -0.3509922E-03 Eh
   gradient norm :     0.0086502 Eh/α   predicted    -0.2361579E-03 ( -32.72%)
   displ. norm   :     0.1080362 α      lambda       -0.4738792E-03
   maximum displ.:     0.0672451 α      in ANC's #4, #6, #1, ...

........................................................................
.............................. CYCLE    9 ..............................
........................................................................

 iter      E             dE          RMSdq      gap      omega  full diag
   1    -23.4726968 -0.234727E+02  0.947E-02    2.13       0.0  T
   2    -23.4726987 -0.194574E-05  0.562E-02    2.13       1.0  T
   3    -23.4726878  0.109174E-04  0.239E-02    2.14       1.0  T
   4    -23.4726990 -0.111970E-04  0.748E-03    2.13       3.3  T
   5    -23.4727000 -0.964770E-06  0.196E-03    2.13      12.8  T
   6    -23.4727000 -0.228606E-08  0.676E-04    2.13      37.0  T
   7    -23.4727000 -0.920426E-09  0.203E-04    2.13     123.2  T
     SCC iter.                  ...        0 min,  0.004 sec
     gradient                   ...        0 min,  0.001 sec
 * total energy  :   -23.2397288 Eh     change       -0.3145842E-03 Eh
   gradient norm :     0.0099903 Eh/α   predicted    -0.2397052E-03 ( -23.80%)
   displ. norm   :     0.0871561 α      lambda       -0.2490158E-03
   maximum displ.:     0.0598725 α      in ANC's #4, #6, #2, ...

........................................................................
.............................. CYCLE   10 ..............................
........................................................................

 iter      E             dE          RMSdq      gap      omega  full diag
   1    -23.4731514 -0.234732E+02  0.727E-02    2.13       0.0  T
   2    -23.4731520 -0.613077E-06  0.430E-02    2.13       1.0  T
   3    -23.4731502  0.188432E-05  0.976E-03    2.13       2.6  T
   4    -23.4731519 -0.176454E-05  0.415E-03    2.13       6.0  T
   5    -23.4731523 -0.337259E-06  0.839E-04    2.13      29.8  T
   6    -23.4731523 -0.401933E-09  0.282E-04    2.13      88.6  T
     SCC iter.                  ...        0 min,  0.003 sec
     gradient                   ...        0 min,  0.001 sec
 * total energy  :   -23.2399177 Eh     change       -0.1888195E-03 Eh
   gradient norm :     0.0105689 Eh/α   predicted    -0.1254528E-03 ( -33.56%)
   displ. norm   :     0.1201660 α      lambda       -0.2861042E-03
   maximum displ.:     0.0832057 α      in ANC's #4, #6, #2, ...

........................................................................
.............................. CYCLE   11 ..............................
........................................................................

 iter      E             dE          RMSdq      gap      omega  full diag
   1    -23.4740445 -0.234740E+02  0.974E-02    2.12       0.0  T
   2    -23.4740450 -0.452883E-06  0.568E-02    2.12       1.0  T
   3    -23.4740388  0.612580E-05  0.180E-02    2.12       1.4  T
   4    -23.4740453 -0.649869E-05  0.291E-03    2.12       8.6  T
   5    -23.4740455 -0.133917E-06  0.107E-03    2.12      23.5  T
   6    -23.4740455 -0.118021E-08  0.215E-04    2.12     116.5  T
   7    -23.4740455 -0.112980E-09  0.922E-05    2.12     271.1  T
     SCC iter.                  ...        0 min,  0.004 sec
     gradient                   ...        0 min,  0.001 sec
 * total energy  :   -23.2401123 Eh     change       -0.1946516E-03 Eh
   gradient norm :     0.0074116 Eh/α   predicted    -0.1451184E-03 ( -25.45%)
   displ. norm   :     0.0751802 α      lambda       -0.1298498E-03
   maximum displ.:     0.0498844 α      in ANC's #4, #2, #1, ...

........................................................................
.............................. CYCLE   12 ..............................
........................................................................

 iter      E             dE          RMSdq      gap      omega  full diag
   1    -23.4745962 -0.234746E+02  0.604E-02    2.12       0.0  T
   2    -23.4745963 -0.757741E-07  0.352E-02    2.13       1.0  T
   3    -23.4745886  0.765142E-05  0.200E-02    2.12       1.3  T
   4    -23.4745969 -0.826895E-05  0.171E-03    2.13      14.6  T
   5    -23.4745969 -0.176497E-07  0.851E-04    2.13      29.4  T
   6    -23.4745969 -0.368335E-09  0.217E-04    2.13     115.3  T
     SCC iter.                  ...        0 min,  0.004 sec
     gradient                   ...        0 min,  0.001 sec
 * total energy  :   -23.2401997 Eh     change       -0.8740970E-04 Eh
   gradient norm :     0.0041403 Eh/α   predicted    -0.6529157E-04 ( -25.30%)
   displ. norm   :     0.0421021 α      lambda       -0.5295732E-04
   maximum displ.:     0.0235143 α      in ANC's #4, #1, #2, ...

........................................................................
.............................. CYCLE   13 ..............................
........................................................................

 iter      E             dE          RMSdq      gap      omega  full diag
   1    -23.4747187 -0.234747E+02  0.345E-02    2.13       0.0  T
   2    -23.4747188 -0.107154E-06  0.204E-02    2.13       1.2  T
   3    -23.4747176  0.118600E-05  0.787E-03    2.13       3.2  T
   4    -23.4747189 -0.127688E-05  0.142E-03    2.13      17.6  T
   5    -23.4747189 -0.214781E-07  0.628E-04    2.13      39.8  T
   6    -23.4747189 -0.376804E-09  0.140E-04    2.13     178.3  T
     SCC iter.                  ...        0 min,  0.003 sec
     gradient                   ...        0 min,  0.001 sec
 * total energy  :   -23.2402355 Eh     change       -0.3578567E-04 Eh
   gradient norm :     0.0035273 Eh/α   predicted    -0.2652649E-04 ( -25.87%)
   displ. norm   :     0.0266112 α      lambda       -0.2551649E-04
   maximum displ.:     0.0185476 α      in ANC's #1, #4, #19, ...

........................................................................
.............................. CYCLE   14 ..............................
........................................................................

 iter      E             dE          RMSdq      gap      omega  full diag
   1    -23.4745743 -0.234746E+02  0.211E-02    2.14       0.0  T
   2    -23.4745743 -0.550247E-07  0.127E-02    2.14       2.0  T
   3    -23.4745743 -0.189345E-08  0.140E-03    2.14      17.9  T
   4    -23.4745743 -0.921746E-08  0.823E-04    2.14      30.4  T
   5    -23.4745743 -0.573024E-08  0.523E-04    2.14      47.8  T
     SCC iter.                  ...        0 min,  0.003 sec
     gradient                   ...        0 min,  0.001 sec
 * total energy  :   -23.2402537 Eh     change       -0.1820693E-04 Eh
   gradient norm :     0.0028277 Eh/α   predicted    -0.1276546E-04 ( -29.89%)
   displ. norm   :     0.0255371 α      lambda       -0.2017649E-04
   maximum displ.:     0.0187721 α      in ANC's #1, #3, #6, ...

........................................................................
.............................. CYCLE   15 ..............................
........................................................................

 iter      E             dE          RMSdq      gap      omega  full diag
   1    -23.4743359 -0.234743E+02  0.177E-02    2.15       0.0  T
   2    -23.4743359 -0.469770E-07  0.107E-02    2.15       2.3  T
   3    -23.4743359 -0.112224E-08  0.129E-03    2.15      19.4  T
   4    -23.4743359 -0.130104E-07  0.640E-04    2.15      39.0  T
   5    -23.4743359  0.230624E-09  0.463E-04    2.15      54.0  T
     SCC iter.                  ...        0 min,  0.003 sec
     gradient                   ...        0 min,  0.001 sec
 * total energy  :   -23.2402684 Eh     change       -0.1466959E-04 Eh
   gradient norm :     0.0022286 Eh/α   predicted    -0.1009503E-04 ( -31.18%)
   displ. norm   :     0.0279455 α      lambda       -0.1883922E-04
   maximum displ.:     0.0201248 α      in ANC's #1, #3, #6, ...

........................................................................
.............................. CYCLE   16 ..............................
........................................................................

 iter      E             dE          RMSdq      gap      omega  full diag
   1    -23.4740929 -0.234741E+02  0.159E-02    2.15       0.0  T
   2    -23.4740930 -0.531829E-07  0.970E-03    2.16       2.6  T
   3    -23.4740928  0.125260E-06  0.281E-03    2.15       8.9  T
   4    -23.4740930 -0.130955E-06  0.104E-03    2.16      24.0  T
   5    -23.4740930 -0.178126E-07  0.414E-04    2.16      60.3  T
   6    -23.4740930 -0.916000E-09  0.867E-05    2.16     288.3  T
     SCC iter.                  ...        0 min,  0.004 sec
     gradient                   ...        0 min,  0.001 sec
 * total energy  :   -23.2402820 Eh     change       -0.1364577E-04 Eh
   gradient norm :     0.0022122 Eh/α   predicted    -0.9424996E-05 ( -30.93%)
   displ. norm   :     0.0283700 α      lambda       -0.1690461E-04
   maximum displ.:     0.0194427 α      in ANC's #1, #3, #4, ...

........................................................................
.............................. CYCLE   17 ..............................
........................................................................

 iter      E             dE          RMSdq      gap      omega  full diag
   1    -23.4739733 -0.234740E+02  0.138E-02    2.16       0.0  T
   2    -23.4739734 -0.358497E-07  0.866E-03    2.16       2.9  T
   3    -23.4739728  0.577679E-06  0.544E-03    2.16       4.6  T
   4    -23.4739734 -0.629027E-06  0.820E-04    2.16      30.5  T
   5    -23.4739734 -0.775836E-08  0.329E-04    2.16      76.1  T
     SCC iter.                  ...        0 min,  0.003 sec
     gradient                   ...        0 min,  0.001 sec
 * total energy  :   -23.2402939 Eh     change       -0.1190720E-04 Eh
   gradient norm :     0.0022236 Eh/α   predicted    -0.8459275E-05 ( -28.96%)
   displ. norm   :     0.0220734 α      lambda       -0.1170362E-04
   maximum displ.:     0.0133914 α      in ANC's #1, #4, #5, ...

........................................................................
.............................. CYCLE   18 ..............................
........................................................................

 iter      E             dE          RMSdq      gap      omega  full diag
   1    -23.4740635 -0.234741E+02  0.115E-02    2.16       0.0  T
   2    -23.4740635 -0.727510E-08  0.713E-03    2.16       3.5  T
   3    -23.4740630  0.528834E-06  0.526E-03    2.16       4.8  T
   4    -23.4740636 -0.586433E-06  0.544E-04    2.16      45.9  T
   5    -23.4740636 -0.231966E-08  0.246E-04    2.16     101.8  T
     SCC iter.                  ...        0 min,  0.003 sec
     gradient                   ...        0 min,  0.001 sec
 * total energy  :   -23.2403020 Eh     change       -0.8022958E-05 Eh
   gradient norm :     0.0017385 Eh/α   predicted    -0.5853513E-05 ( -27.04%)
   displ. norm   :     0.0217372 α      lambda       -0.5978991E-05
   maximum displ.:     0.0109391 α      in ANC's #1, #5, #4, ...

........................................................................
.............................. CYCLE   19 ..............................
........................................................................

 iter      E             dE          RMSdq      gap      omega  full diag
   1    -23.4743366 -0.234743E+02  0.138E-02    2.16       0.0  T
   2    -23.4743366 -0.739801E-08  0.831E-03    2.16       3.0  T
   3    -23.4743361  0.582307E-06  0.546E-03    2.16       4.6  T
   4    -23.4743367 -0.634867E-06  0.600E-04    2.16      41.7  T
   5    -23.4743367 -0.353872E-08  0.261E-04    2.16      95.9  T
     SCC iter.                  ...        0 min,  0.003 sec
     gradient                   ...        0 min,  0.001 sec
 * total energy  :   -23.2403066 Eh     change       -0.4660164E-05 Eh
   gradient norm :     0.0011857 Eh/α   predicted    -0.2988777E-05 ( -35.87%)
   displ. norm   :     0.0051174 α      lambda       -0.1793145E-05
   maximum displ.:     0.0033858 α      in ANC's #5, #13, #17, ...

........................................................................
.............................. CYCLE   20 ..............................
........................................................................

 iter      E             dE          RMSdq      gap      omega  full diag
   1    -23.4744138 -0.234744E+02  0.460E-03    2.16       0.0  T
   2    -23.4744138 -0.198268E-08  0.276E-03    2.16       9.0  T
   3    -23.4744137  0.591859E-07  0.172E-03    2.16      14.5  T
   4    -23.4744138 -0.643174E-07  0.197E-04    2.16     126.8  T
   5    -23.4744138 -0.473833E-09  0.766E-05    2.16     326.3  T
     SCC iter.                  ...        0 min,  0.003 sec
     gradient                   ...        0 min,  0.001 sec
 * total energy  :   -23.2403087 Eh     change       -0.2072582E-05 Eh
   gradient norm :     0.0006783 Eh/α   predicted    -0.8962934E-06 ( -56.75%)
   displ. norm   :     0.0121002 α      lambda       -0.2353801E-05
   maximum displ.:     0.0089245 α      in ANC's #5, #1, #13, ...

   *** GEOMETRY OPTIMIZATION CONVERGED AFTER 20 ITERATIONS ***

------------------------------------------------------------------------
 total energy gain   :        -0.6485773 Eh     -406.9884 kcal/mol
 total RMSD          :         0.2637669 a0        0.1396 Å
 total power (kW/mol):       -85.1419790 (step)********** (real)
------------------------------------------------------------------------

 ANCopt (total)                0 d,  0 h,  0 min,  0.117 sec
 optimizer setup                ...        0 min,  0.000 sec (  0.097%)
 model hessian                  ...        0 min,  0.005 sec (  4.684%)
 ANC generation                 ...        0 min,  0.000 sec (  0.321%)
 coordinate transformation      ...        0 min,  0.000 sec (  0.083%)
 single point calculation       ...        0 min,  0.104 sec ( 88.473%)
 optimization log               ...        0 min,  0.002 sec (  1.541%)
 hessian update                 ...        0 min,  0.000 sec (  0.230%)
 rational function              ...        0 min,  0.003 sec (  2.213%)

================
 final structure:
================
16
 xtb: 6.6.1 (8d0f1dd)
O            2.62773258141332       -0.21265829372418        0.88115918098453
O            0.92309663763959       -0.54115705451111        0.78443445862261
C            0.58203605295945       -0.46003794206465       -0.57760826418278
C           -0.73832347091424       -1.22148857932155       -0.41634668184619
C           -1.09897324142752       -0.31372559888840        0.71759576576899
C           -0.97412174420787        1.09719806771840        0.25595143798690
C            0.11001370557961        0.97719722541248       -0.83811656367411
H            2.73993936350019       -0.45141212950679        1.80225973638229
H            1.36749128045699       -0.84156052652928       -1.22868512492500
H           -0.59414010307414       -2.25655582887415       -0.12019200609759
H           -1.40940878726044       -1.15761992497446       -1.27761414813155
H           -1.57036444741213       -0.61473125167858        1.63457246037704
H           -0.67367113239507        1.75962411347199        1.06731463643469
H           -1.92294193986259        1.46925907958600       -0.14463068307532
H            0.92326716761080        1.68408757577679       -0.69541849204808
H           -0.29136192260593        1.08377106810752       -1.84468571257642

 Bond Distances (Angstroems)
 ---------------------------
O1-H8=0.9581         O2-C3=1.4064         C3-O2=1.4064         C3-C4=1.5327         C3-C7=1.5350         C3-H9=1.0892         
C4-C3=1.5327         C4-C5=1.4966         C4-H10=1.0862        C4-H11=1.0937        C5-C4=1.4966         C5-C6=1.4898         
C5-H12=1.0741        C6-C5=1.4898         C6-C7=1.5449         C6-H13=1.0897        C6-H14=1.0951        C7-C3=1.5350         
C7-C6=1.5449         C7-H15=1.0869        C7-H16=1.0889        H8-O1=0.9581         H9-C3=1.0892         H10-C4=1.0862        
H11-C4=1.0937        H12-C5=1.0741        H13-C6=1.0897        H14-C6=1.0951        H15-C7=1.0869        H16-C7=1.0889        
 C  H  Rav=1.0880 sigma=0.0060  Rmin=1.0741  Rmax=1.0951     8
 C  C  Rav=1.5198 sigma=0.0222  Rmin=1.4898  Rmax=1.5449     5
 O  H  Rav=0.9581 sigma=0.0000  Rmin=0.9581  Rmax=0.9581     1
 O  C  Rav=1.4064 sigma=0.0000  Rmin=1.4064  Rmax=1.4064     1

 selected bond angles (degree)
 --------------------
C4-C3-O2= 94.49                C7-C3-O2=107.03                C7-C3-C4=102.60                H9-C3-O2=112.57                
H9-C3-C4=120.67                H9-C3-C7=116.63                C5-C4-C3= 89.20                H10-C4-C3=112.81               
H10-C4-C5=113.79               H11-C4-C3=114.63               H11-C4-C5=114.42               H11-C4-H10=110.60              
C6-C5-C4=108.63                H12-C5-C4=125.63               H12-C5-C6=124.52               C7-C6-C5=101.81                
H13-C6-C5=111.60               H13-C6-C7=112.40               H14-C6-C5=111.26               H14-C6-C7=112.05               
H14-C6-H13=107.74              C6-C7-C3= 99.69                H15-C7-C3=110.89               H15-C7-C6=112.43               
H16-C7-C3=111.22               H16-C7-C6=112.85               H16-C7-H15=109.48              

 selected dihedral angles (degree)
 ---------------------------------
C5-C4-C3-O2= 50.11            C5-C4-C3-C7=301.53            C5-C4-C3-H9=169.73            H10-C4-C3-O2=294.53           
H10-C4-C3-C7=185.95           H10-C4-C3-H9= 54.15           H11-C4-C3-O2=166.75           H11-C4-C3-C7= 58.17           
H11-C4-C3-H9=286.37           C6-C5-C4-C3= 52.95            C6-C5-C4-H10=167.64           C6-C5-C4-H11=296.13           
H12-C5-C4-C3=220.79           H12-C5-C4-H10=335.47          H12-C5-C4-H11=103.96          C7-C6-C5-C4=331.89            
C7-C6-C5-H12=163.89           H13-C6-C5-C4=211.80           H13-C6-C5-H12= 43.80          H14-C6-C5-C4= 91.42           
H14-C6-C5-H12=283.42          C6-C7-C3-O2=306.49            C6-C7-C3-C4= 45.26            C6-C7-C3-H9=179.43            
H15-C7-C3-O2= 65.14           H15-C7-C3-C4=163.91           H15-C7-C3-H9=298.08           H16-C7-C3-O2=187.22           
H16-C7-C3-C4=285.99           H16-C7-C3-H9= 60.16           C3-C7-C6-C5=349.28            C3-C7-C6-H13=108.81           
C3-C7-C6-H14=230.31           H15-C7-C6-C5=231.77           H15-C7-C6-H13=351.31          H15-C7-C6-H14=112.81          
H16-C7-C6-C5=107.34           H16-C7-C6-H13=226.87          H16-C7-C6-H14=348.37          

 CMA Distance (Angstroems)
 ---------------------------
R(CMA):  2.4152
           -------------------------------------------------
          |                Final Singlepoint                |
           -------------------------------------------------

          ...................................................
          :                      SETUP                      :
          :.................................................:
          :  # basis functions                  37          :
          :  # atomic orbitals                  37          :
          :  # shells                           23          :
          :  # electrons                        41          :
          :  max. iterations                   250          :
          :  Hamiltonian                  GFN2-xTB          :
          :  restarted?                      false          :
          :  GBSA solvation                  false          :
          :  PC potential                    false          :
          :  electronic temp.          300.0000000     K    :
          :  accuracy                    1.0000000          :
          :  -> integral cutoff          0.2500000E+02      :
          :  -> integral neglect         0.1000000E-07      :
          :  -> SCF convergence          0.1000000E-05 Eh   :
          :  -> wf. convergence          0.1000000E-03 e    :
          :  Broyden damping             0.4000000          :
          ...................................................

 iter      E             dE          RMSdq      gap      omega  full diag
   1    -23.4744138 -0.234744E+02  0.258E-05    2.16       0.0  T
   2    -23.4744138 -0.111910E-11  0.163E-05    2.16    1536.8  T
   3    -23.4744138  0.991207E-12  0.123E-05    2.16    2035.4  T

   *** convergence criteria satisfied after 3 iterations ***

         #    Occupation            Energy/Eh            Energy/eV
      -------------------------------------------------------------
         1        2.0000           -0.6915805             -18.8189
       ...           ...                  ...                  ...
        15        2.0000           -0.4711681             -12.8211
        16        2.0000           -0.4653692             -12.6633
        17        2.0000           -0.4555766             -12.3969
        18        2.0000           -0.4425766             -12.0431
        19        2.0000           -0.4337481             -11.8029
        20        2.0000           -0.4012785             -10.9193
        21        1.0000           -0.3326506              -9.0519 (HOMO)
        22                         -0.2531764              -6.8893 (LUMO)
        23                          0.0330965               0.9006
        24                          0.0527992               1.4367
        25                          0.0638528               1.7375
        26                          0.0882517               2.4015
       ...                                ...                  ...
        37                          0.3661307               9.9629
      -------------------------------------------------------------
                  HL-Gap            0.0794742 Eh            2.1626 eV
             Fermi-level           -0.3299391 Eh           -8.9781 eV

 SCC (total)                   0 d,  0 h,  0 min,  0.004 sec
 SCC setup                      ...        0 min,  0.000 sec (  2.264%)
 Dispersion                     ...        0 min,  0.000 sec (  1.763%)
 classical contributions        ...        0 min,  0.000 sec (  0.371%)
 integral evaluation            ...        0 min,  0.000 sec (  8.216%)
 iterations                     ...        0 min,  0.002 sec ( 57.996%)
 molecular gradient             ...        0 min,  0.001 sec ( 25.116%)
 printout                       ...        0 min,  0.000 sec (  3.708%)

         :::::::::::::::::::::::::::::::::::::::::::::::::::::
         ::                     SUMMARY                     ::
         :::::::::::::::::::::::::::::::::::::::::::::::::::::
         :: total energy             -23.240308697077 Eh    ::
         :: gradient norm              0.000678170539 Eh/a0 ::
         :: HOMO-LUMO gap              2.162602869375 eV    ::
         ::.................................................::
         :: SCC energy               -23.474413796389 Eh    ::
         :: -> isotropic ES            0.046147194059 Eh    ::
         :: -> anisotropic ES         -0.005233594817 Eh    ::
         :: -> anisotropic XC          0.005349578138 Eh    ::
         :: -> dispersion             -0.009872486323 Eh    ::
         :: repulsion energy           0.233902360121 Eh    ::
         :: add. restraining           0.000175061824 Eh    ::
         :: total charge              -0.000000000000 e     ::
         :::::::::::::::::::::::::::::::::::::::::::::::::::::

           -------------------------------------------------
          |                Property Printout                |
           -------------------------------------------------

    * Orbital Energies and Occupations

         #    Occupation            Energy/Eh            Energy/eV
      -------------------------------------------------------------
         1        2.0000           -0.6915805             -18.8189
       ...           ...                  ...                  ...
         9        2.0000           -0.5421926             -14.7538
        10        2.0000           -0.5346508             -14.5486
        11        2.0000           -0.5226379             -14.2217
        12        2.0000           -0.4981992             -13.5567
        13        2.0000           -0.4859500             -13.2234
        14        2.0000           -0.4763175             -12.9613
        15        2.0000           -0.4711681             -12.8211
        16        2.0000           -0.4653692             -12.6633
        17        2.0000           -0.4555766             -12.3969
        18        2.0000           -0.4425766             -12.0431
        19        2.0000           -0.4337481             -11.8029
        20        2.0000           -0.4012785             -10.9193
        21        1.0000           -0.3326506              -9.0519 (HOMO)
        22                         -0.2531764              -6.8893 (LUMO)
        23                          0.0330965               0.9006
        24                          0.0527992               1.4367
        25                          0.0638528               1.7375
        26                          0.0882517               2.4015
        27                          0.1092265               2.9722
        28                          0.1290216               3.5109
        29                          0.1443963               3.9292
        30                          0.1635361               4.4500
        31                          0.1821043               4.9553
        32                          0.1938196               5.2741
       ...                                ...                  ...
        37                          0.3661307               9.9629
      -------------------------------------------------------------
                  HL-Gap            0.0794742 Eh            2.1626 eV
             Fermi-level           -0.3299391 Eh           -8.9781 eV

     #   Z          covCN         q      C6AA      α(0)
     1   8 O        1.154    -0.445    22.423     6.357
     2   8 O        1.339    -0.262    18.737     5.823
     3   6 C        3.998     0.134    18.348     6.085
     4   6 C        3.858    -0.059    21.588     6.608
     5   6 C        3.266     0.018    26.381     8.290
     6   6 C        3.841    -0.055    21.537     6.602
     7   6 C        3.845    -0.070    21.805     6.642
     8   1 H        0.806     0.287     0.762     1.371
     9   1 H        0.925     0.047     2.352     2.398
    10   1 H        0.925     0.062     2.174     2.306
    11   1 H        0.924     0.056     2.242     2.342
    12   1 H        0.926     0.061     2.185     2.312
    13   1 H        0.925     0.067     2.120     2.277
    14   1 H        0.924     0.059     2.213     2.326
    15   1 H        0.925     0.063     2.163     2.300
    16   1 H        0.925     0.037     2.490     2.467

 Mol. C6AA /au·bohr⁶  :       2040.294233
 Mol. C8AA /au·bohr⁸  :      44356.478092
 Mol. α(0) /au        :         66.506645


Wiberg/Mayer (AO) data.
largest (>0.10) Wiberg bond orders for each atom

 ---------------------------------------------------------------------------
     #   Z sym  total        # sym  WBO       # sym  WBO       # sym  WBO
 ---------------------------------------------------------------------------
     1   8 O    1.846 --     8 H    0.915     2 O    0.666     5 C    0.185
     2   8 O    2.112 --     3 C    0.998     1 O    0.666     5 C    0.357
     3   6 C    3.947 --     2 O    0.998     7 C    0.984     9 H    0.960
                             4 C    0.949
     4   6 C    3.988 --     5 C    1.039    10 H    0.973     3 C    0.949
                            11 H    0.944
     5   6 C    3.726 --     6 C    1.063     4 C    1.039    12 H    0.972
                             2 O    0.357     1 O    0.185
     6   6 C    3.996 --     5 C    1.063     7 C    0.995    13 H    0.963
                            14 H    0.940
     7   6 C    3.995 --     6 C    0.995     3 C    0.984    16 H    0.980
                            15 H    0.978
     8   1 H    0.918 --     1 O    0.915
     9   1 H    0.998 --     3 C    0.960
    10   1 H    0.996 --     4 C    0.973
    11   1 H    0.995 --     4 C    0.944
    12   1 H    0.996 --     5 C    0.972
    13   1 H    0.995 --     6 C    0.963
    14   1 H    0.996 --     6 C    0.940
    15   1 H    0.996 --     7 C    0.978
    16   1 H    0.999 --     7 C    0.980
 ---------------------------------------------------------------------------

Topologies differ in total number of bonds
Writing topology from bond orders to xtbtopo.mol

molecular dipole:
                 x           y           z       tot (Debye)
 q only:       -1.391       0.095      -0.309
   full:       -1.377       0.017      -0.171       3.528
molecular quadrupole (traceless):
                xx          xy          yy          xz          yz          zz
 q only:       -4.857       0.079       1.890      -0.237       0.312       2.967
  q+dip:       -5.745      -0.497       1.739       1.031       0.065       4.006
   full:       -5.009      -0.352       1.132       1.143      -0.014       3.877

           -------------------------------------------------
          |                Geometry Summary                 |
           -------------------------------------------------

      molecular mass/u    :      101.1239561
   center of mass at/Å    :        0.2958095      -0.1031389       0.1535097
  moments of inertia/u·Å² :        0.1138875E+03   0.2283728E+03   0.2497303E+03
rotational constants/cm⁻¹ :        0.1480200E+00   0.7381629E-01   0.6750334E-01

 * 12 selected distances

     #   Z          #   Z                                           value/Å
     3   6 C        4   6 C                                       1.5326976
     4   6 C        5   6 C                                       1.4966388
     5   6 C        6   6 C                                       1.4897682
     3   6 C        7   6 C                                       1.5350293 (max)
     3   6 C        9   1 H                                       1.0892202
     4   6 C       10   1 H                                       1.0862140
     4   6 C       11   1 H                                       1.0937169
     5   6 C       12   1 H                                       1.0740859 (min)
     6   6 C       13   1 H                                       1.0896739
     6   6 C       14   1 H                                       1.0950596
     7   6 C       15   1 H                                       1.0869398
     7   6 C       16   1 H                                       1.0888719

 * 2 distinct bonds (by element types)

   Z      Z             #   av. dist./Å        max./Å        min./Å
   1 H    6 C           8     1.0879728     1.0950596     1.0740859
   6 C    6 C           4     1.5135335     1.5350293     1.4897682


optimized geometry written to: xtbopt.xyz


           -------------------------------------------------
          | TOTAL ENERGY              -23.240308697077 Eh   |
          | GRADIENT NORM               0.000678170539 Eh/α |
          | HOMO-LUMO GAP               2.162602869375 eV   |
           -------------------------------------------------

------------------------------------------------------------------------
 * finished run on 2025/05/23 at 13:10:40.605     
------------------------------------------------------------------------
 total:
 * wall-time:     0 d,  0 h,  0 min,  0.139 sec
 *  cpu-time:     0 d,  0 h,  0 min,  2.058 sec
 * ratio c/w:    14.833 speedup
 SCF:
 * wall-time:     0 d,  0 h,  0 min,  0.011 sec
 *  cpu-time:     0 d,  0 h,  0 min,  0.163 sec
 * ratio c/w:    15.248 speedup
 ANC optimizer:
 * wall-time:     0 d,  0 h,  0 min,  0.122 sec
 *  cpu-time:     0 d,  0 h,  0 min,  1.826 sec
 * ratio c/w:    15.011 speedup

