      -----------------------------------------------------------      
     |                   =====================                   |     
     |                           x T B                           |     
     |                   =====================                   |     
     |                         S. Grimme                         |     
     |          Mulliken Center for Theoretical Chemistry        |     
     |                    University of Bonn                     |     
      -----------------------------------------------------------      

   * xtb version 6.6.1 (8d0f1dd) compiled by 'conda@1efc2f54142f' on 2023-08-01

   xtb is free software: you can redistribute it and/or modify it under
   the terms of the GNU Lesser General Public License as published by
   the Free Software Foundation, either version 3 of the License, or
   (at your option) any later version.
   
   xtb is distributed in the hope that it will be useful,
   but WITHOUT ANY WARRANTY; without even the implied warranty of
   MERCHANTABILITY or FITNESS FOR A PARTICULAR PURPOSE.  See the
   GNU Lesser General Public License for more details.
   
   Cite this work as:
   * C. Bannwarth, E. Caldeweyher, S. Ehlert, A. Hansen, P. Pracht,
     J. Seibert, S. Spicher, S. Grimme, WIREs Comput. Mol. Sci., 2020, 11,
     e01493. DOI: 10.1002/wcms.1493
   
   for GFN2-xTB:
   * C. Bannwarth, S. Ehlert and S. Grimme., J. Chem. Theory Comput., 2019,
     15, 1652-1671. DOI: 10.1021/acs.jctc.8b01176
   for GFN1-xTB:
   * S. Grimme, C. Bannwarth, P. Shushkov, J. Chem. Theory Comput., 2017,
     13, 1989-2009. DOI: 10.1021/acs.jctc.7b00118
   for GFN0-xTB:
   * P. Pracht, E. Caldeweyher, S. Ehlert, S. Grimme, ChemRxiv, 2019, preprint.
     DOI: 10.26434/chemrxiv.8326202.v1
   for GFN-FF:
   * S. Spicher and S. Grimme, Angew. Chem. Int. Ed., 2020, 59, 15665-15673.
     DOI: 10.1002/anie.202004239
   
   for ALPB and GBSA implicit solvation:
   * S. Ehlert, M. Stahn, S. Spicher, S. Grimme, J. Chem. Theory Comput.,
     2021, 17, 4250-4261. DOI: 10.1021/acs.jctc.1c00471
   
   for DFT-D4:
   * E. Caldeweyher, C. Bannwarth and S. Grimme, J. Chem. Phys., 2017,
     147, 034112. DOI: 10.1063/1.4993215
   * E. Caldeweyher, S. Ehlert, A. Hansen, H. Neugebauer, S. Spicher,
     C. Bannwarth and S. Grimme, J. Chem. Phys., 2019, 150, 154122.
     DOI: 10.1063/1.5090222
   * E. Caldeweyher, J.-M. Mewes, S. Ehlert and S. Grimme, Phys. Chem. Chem. Phys.
     2020, 22, 8499-8512. DOI: 10.1039/D0CP00502A
   
   for sTDA-xTB:
   * S. Grimme and C. Bannwarth, J. Chem. Phys., 2016, 145, 054103.
     DOI: 10.1063/1.4959605
   
   in the mass-spec context:
   * V. Asgeirsson, C. Bauer and S. Grimme, Chem. Sci., 2017, 8, 4879.
     DOI: 10.1039/c7sc00601b
   * J. Koopman and S. Grimme, ACS Omega 2019, 4, 12, 15120-15133.
     DOI: 10.1021/acsomega.9b02011
   
   for metadynamics refer to:
   * S. Grimme, J. Chem. Theory Comput., 2019, 155, 2847-2862
     DOI: 10.1021/acs.jctc.9b00143
   
   for SPH calculations refer to:
   * S. Spicher and S. Grimme, J. Chem. Theory Comput., 2021, 17, 1701-1714
     DOI: 10.1021/acs.jctc.0c01306
   
   with help from (in alphabetical order)
   P. Atkinson, C. Bannwarth, F. Bohle, G. Brandenburg, E. Caldeweyher
   M. Checinski, S. Dohm, S. Ehlert, S. Ehrlich, I. Gerasimov, C. Hölzer
   A. Katbashev, J. Koopman, C. Lavigne, S. Lehtola, F. März, M. Müller,
   F. Musil, H. Neugebauer, J. Pisarek, C. Plett, P. Pracht, F. Pultar,
   J. Seibert, P. Shushkov, S. Spicher, M. Stahn, M. Steiner, T. Strunk,
   J. Stückrath, T. Rose, and J. Unsleber
   
 * started run on 2025/05/23 at 13:10:39.872     

           -------------------------------------------------
          |                Calculation Setup                |
           -------------------------------------------------

          program call               : /gpfs/fs1/home/copan/code/autode-practice/.pixi/envs/default/bin/xtb path_opt2_xtb.xyz --chrg 0 --uhf 1 --opt --input xcontrol_path_opt2_xtb
          hostname                   : csed-0021
          coordinate file            : path_opt2_xtb.xyz
          omp threads                :                     8

   ID    Z sym.   atoms
    1    8 O      1, 2
    2    6 C      3-7
    3    1 H      8-16
constraining bond 2 5 to    2.3344000 Å, actual value:    2.5571144 Å
constraining bond 1 2 to    1.6998000 Å, actual value:    1.6491930 Å

           -------------------------------------------------
          |                 G F N 2 - x T B                 |
           -------------------------------------------------

        Reference                      10.1021/acs.jctc.8b01176
      * Hamiltonian:
        H0-scaling (s, p, d)           1.850000    2.230000    2.230000
        zeta-weighting                 0.500000
      * Dispersion:
        s8                             2.700000
        a1                             0.520000
        a2                             5.000000
        s9                             5.000000
      * Repulsion:
        kExp                           1.500000    1.000000
        rExp                           1.000000
      * Coulomb:
        alpha                          2.000000
        third order                    shell-resolved
        anisotropic                    true
        a3                             3.000000
        a5                             4.000000
        cn-shift                       1.200000
        cn-exp                         4.000000
        max-rad                        5.000000


          ...................................................
          :                      SETUP                      :
          :.................................................:
          :  # basis functions                  37          :
          :  # atomic orbitals                  37          :
          :  # shells                           23          :
          :  # electrons                        41          :
          :  max. iterations                   250          :
          :  Hamiltonian                  GFN2-xTB          :
          :  restarted?                      false          :
          :  GBSA solvation                  false          :
          :  PC potential                    false          :
          :  electronic temp.          300.0000000     K    :
          :  accuracy                    1.0000000          :
          :  -> integral cutoff          0.2500000E+02      :
          :  -> integral neglect         0.1000000E-07      :
          :  -> SCF convergence          0.1000000E-05 Eh   :
          :  -> wf. convergence          0.1000000E-03 e    :
          :  Broyden damping             0.4000000          :
          ...................................................

 iter      E             dE          RMSdq      gap      omega  full diag
   1    -23.4663652 -0.234664E+02  0.310E+00    0.99       0.0  T
   2    -23.4857892 -0.194240E-01  0.181E+00    1.01       1.0  T
   3    -23.4864223 -0.633084E-03  0.665E-01    0.67       1.0  T
   4    -23.4869684 -0.546078E-03  0.132E-01    0.74       1.0  T
   5    -23.4870822 -0.113831E-03  0.658E-02    0.69       1.0  T
   6    -23.4870959 -0.137219E-04  0.378E-02    0.74       1.0  T
   7    -23.4871057 -0.973826E-05  0.130E-02    0.72       1.9  T
   8    -23.4871064 -0.698941E-06  0.375E-03    0.72       6.7  T
   9    -23.4871064 -0.268663E-07  0.194E-03    0.72      12.9  T
  10    -23.4871064 -0.112263E-07  0.646E-04    0.72      38.7  T
  11    -23.4871064 -0.212765E-08  0.348E-04    0.72      71.8  T

   *** convergence criteria satisfied after 11 iterations ***

         #    Occupation            Energy/Eh            Energy/eV
      -------------------------------------------------------------
         1        2.0000           -0.6966937             -18.9580
       ...           ...                  ...                  ...
        15        2.0000           -0.4595183             -12.5041
        16        2.0000           -0.4567152             -12.4279
        17        2.0000           -0.4515412             -12.2871
        18        2.0000           -0.4497129             -12.2373
        19        2.0000           -0.4438129             -12.0768
        20        2.0000           -0.4077806             -11.0963
        21        1.0000           -0.3003049              -8.1717 (HOMO)
        22        0.0000           -0.2737090              -7.4480 (LUMO)
        23                          0.0585581               1.5934
        24                          0.0668679               1.8196
        25                          0.0980490               2.6680
        26                          0.1120311               3.0485
       ...                                ...                  ...
        37                          0.3933746              10.7043
      -------------------------------------------------------------
                  HL-Gap            0.0265959 Eh            0.7237 eV
             Fermi-level           -0.3205249 Eh           -8.7219 eV

 SCC (total)                   0 d,  0 h,  0 min,  0.009 sec
 SCC setup                      ...        0 min,  0.000 sec (  1.954%)
 Dispersion                     ...        0 min,  0.000 sec (  1.297%)
 classical contributions        ...        0 min,  0.000 sec (  2.002%)
 integral evaluation            ...        0 min,  0.000 sec (  5.153%)
 iterations                     ...        0 min,  0.007 sec ( 76.317%)
 molecular gradient             ...        0 min,  0.001 sec ( 11.064%)
 printout                       ...        0 min,  0.000 sec (  1.943%)

         :::::::::::::::::::::::::::::::::::::::::::::::::::::
         ::                     SUMMARY                     ::
         :::::::::::::::::::::::::::::::::::::::::::::::::::::
         :: total energy             -22.877597251534 Eh    ::
         :: gradient norm              2.499806635839 Eh/a0 ::
         :: HOMO-LUMO gap              0.723711493871 eV    ::
         ::.................................................::
         :: SCC energy               -23.487106410023 Eh    ::
         :: -> isotropic ES            0.033504690837 Eh    ::
         :: -> anisotropic ES         -0.004202683788 Eh    ::
         :: -> anisotropic XC          0.004122079527 Eh    ::
         :: -> dispersion             -0.009916283039 Eh    ::
         :: repulsion energy           0.236928781676 Eh    ::
         :: add. restraining           0.372553350668 Eh    ::
         :: total charge               0.000000000000 e     ::
         :::::::::::::::::::::::::::::::::::::::::::::::::::::

      ----------------------------------------------------------- 
     |                   =====================                   |
     |                        A N C O P T                        |
     |                   =====================                   |
     |               Approximate Normal Coordinate               |
     |                Rational Function Optimizer                |
      ----------------------------------------------------------- 

          ...................................................
          :                      SETUP                      :
          :.................................................:
          :   optimization level            normal          :
          :   max. optcycles                   200          :
          :   ANC micro-cycles                  20          :
          :   degrees of freedom                42          :
          :.................................................:
          :   RF solver                   davidson          :
          :   write xtbopt.log                true          :
          :   linear?                        false          :
          :   energy convergence         0.5000000E-05 Eh   :
          :   grad. convergence          0.1000000E-02 Eh/α :
          :   maxmium RF displ.          1.0000000          :
          :   Hlow (freq-cutoff)         0.1000000E-01      :
          :   Hmax (freq-cutoff)         5.0000000          :
          :   S6 in model hess.         20.0000000          :
          ...................................................

generating ANC from model Hessian ...
Using Lindh-Hessian (1995)
 Shifting diagonal of input Hessian by   0.14717689884018101     
 Lowest  eigenvalues of input Hessian
    0.010000    0.099021    0.000000    0.000000    0.000000    0.000000
    0.000000    0.000000    0.154630    0.163433    0.165454    0.185557
    0.193487    0.194471    0.197881    0.200259    0.201224    0.202860
 Highest eigenvalues
    1.392692    1.421941    1.724064    1.850890    6.786874   10.612124


........................................................................
.............................. CYCLE    1 ..............................
........................................................................

 iter      E             dE          RMSdq      gap      omega  full diag
   1    -23.4871064 -0.234871E+02  0.123E-04    0.72       0.0  T
   2    -23.4871064 -0.451763E-10  0.780E-05    0.72     320.4  T
   3    -23.4871064 -0.196323E-10  0.592E-05    0.72     422.6  T
     SCC iter.                  ...        0 min,  0.002 sec
     gradient                   ...        0 min,  0.001 sec
 * total energy  :   -22.8775973 Eh     change       -0.8830803E-09 Eh
   gradient norm :     2.4998072 Eh/α   predicted     0.0000000E+00 (-100.00%)
   displ. norm   :     0.4199750 α      lambda       -0.1042047E+01
   maximum displ.:     0.3514080 α      in ANC's #41, #42, #33, ...

........................................................................
.............................. CYCLE    2 ..............................
........................................................................

 iter      E             dE          RMSdq      gap      omega  full diag
   1    -23.2850860 -0.232851E+02  0.277E+00    0.99       0.0  T
   2    -22.8419254  0.443161E+00  0.539E+00    2.77       1.0  T
   3    -23.4497100 -0.607785E+00  0.776E-01    0.99       1.0  T
   4    -23.4574776 -0.776764E-02  0.363E-01    0.83       1.0  T
   5    -23.4588723 -0.139464E-02  0.171E-01    0.75       1.0  T
   6    -23.4588629  0.933937E-05  0.577E-02    0.73       1.0  T
   7    -23.4589118 -0.488989E-04  0.130E-02    0.74       1.9  T
   8    -23.4589126 -0.774511E-06  0.608E-03    0.74       4.1  T
   9    -23.4589128 -0.173661E-06  0.242E-03    0.74      10.3  T
  10    -23.4589128 -0.268208E-07  0.140E-03    0.74      17.9  T
  11    -23.4589128 -0.219722E-07  0.350E-04    0.74      71.5  T
  12    -23.4589128 -0.826930E-09  0.149E-04    0.74     167.9  T
     SCC iter.                  ...        0 min,  0.006 sec
     gradient                   ...        0 min,  0.001 sec
 * total energy  :   -23.1199485 Eh     change       -0.2423513E+00 Eh
   gradient norm :     1.5143805 Eh/α   predicted    -0.6129211E+00 ( 152.91%)
   displ. norm   :     0.2116677 α      lambda       -0.2370883E+00
   maximum displ.:     0.1500998 α      in ANC's #41, #1, #2, ...

........................................................................
.............................. CYCLE    3 ..............................
........................................................................

 iter      E             dE          RMSdq      gap      omega  full diag
   1    -23.4641929 -0.234642E+02  0.715E-01    1.58       0.0  T
   2    -23.4642954 -0.102508E-03  0.636E-01    0.63       1.0  T
   3    -23.4717309 -0.743547E-02  0.274E-01    1.01       1.0  T
   4    -23.4725715 -0.840570E-03  0.101E-01    0.80       1.0  T
   5    -23.4724878  0.836943E-04  0.828E-02    0.78       1.0  T
   6    -23.4726148 -0.127065E-03  0.285E-02    0.85       1.0  T
   7    -23.4726288 -0.139553E-04  0.725E-03    0.83       3.4  T
   8    -23.4726293 -0.486583E-06  0.341E-03    0.83       7.3  T
   9    -23.4726294 -0.162783E-06  0.839E-04    0.83      29.8  T
  10    -23.4726294 -0.544904E-08  0.406E-04    0.83      61.5  T
     SCC iter.                  ...        0 min,  0.005 sec
     gradient                   ...        0 min,  0.001 sec
 * total energy  :   -23.2315006 Eh     change       -0.1115520E+00 Eh
   gradient norm :     0.1614493 Eh/α   predicted    -0.1238553E+00 (  11.03%)
   displ. norm   :     0.3585392 α      lambda       -0.9127935E-02
   maximum displ.:     0.3494635 α      in ANC's #1, #42, #13, ...

........................................................................
.............................. CYCLE    4 ..............................
........................................................................

 iter      E             dE          RMSdq      gap      omega  full diag
   1    -23.4683212 -0.234683E+02  0.526E-01    0.70       0.0  T
   2    -23.4669911  0.133009E-02  0.477E-01    1.13       1.0  T
   3    -23.4706304 -0.363929E-02  0.210E-01    0.82       1.0  T
   4    -23.4706553 -0.249322E-04  0.690E-02    0.82       1.0  T
   5    -23.4707133 -0.579187E-04  0.118E-02    0.84       2.1  T
   6    -23.4707133 -0.498065E-07  0.625E-03    0.85       4.0  T
   7    -23.4707135 -0.210053E-06  0.187E-03    0.84      13.3  T
   8    -23.4707136 -0.308399E-07  0.628E-04    0.84      39.8  T
   9    -23.4707136 -0.319075E-08  0.282E-04    0.84      88.6  T
     SCC iter.                  ...        0 min,  0.005 sec
     gradient                   ...        0 min,  0.001 sec
 * total energy  :   -23.2333155 Eh     change       -0.1814957E-02 Eh
   gradient norm :     0.1679750 Eh/α   predicted    -0.5150662E-02 ( 183.79%)
   displ. norm   :     0.3376859 α      lambda       -0.7620605E-02
   maximum displ.:     0.3343592 α      in ANC's #1, #4, #13, ...

........................................................................
.............................. CYCLE    5 ..............................
........................................................................

 iter      E             dE          RMSdq      gap      omega  full diag
   1    -23.4745030 -0.234745E+02  0.371E-01    0.88       0.0  T
   2    -23.4740967  0.406350E-03  0.278E-01    0.70       1.0  T
   3    -23.4743113 -0.214587E-03  0.224E-01    0.88       1.0  T
   4    -23.4748776 -0.566329E-03  0.244E-02    0.79       1.0  T
   5    -23.4748845 -0.694078E-05  0.819E-03    0.78       3.1  T
   6    -23.4748847 -0.132888E-06  0.329E-03    0.78       7.6  T
   7    -23.4748847 -0.216630E-07  0.899E-04    0.78      27.8  T
   8    -23.4748847 -0.531839E-08  0.411E-04    0.78      60.8  T
     SCC iter.                  ...        0 min,  0.004 sec
     gradient                   ...        0 min,  0.001 sec
 * total energy  :   -23.2355372 Eh     change       -0.2221619E-02 Eh
   gradient norm :     0.0161704 Eh/α   predicted    -0.4244808E-02 (  91.07%)
   displ. norm   :     0.0727791 α      lambda       -0.6805122E-03
   maximum displ.:     0.0580472 α      in ANC's #1, #4, #13, ...

........................................................................
.............................. CYCLE    6 ..............................
........................................................................

 iter      E             dE          RMSdq      gap      omega  full diag
   1    -23.4749310 -0.234749E+02  0.867E-02    0.80       0.0  T
   2    -23.4749344 -0.342272E-05  0.532E-02    0.81       1.0  T
   3    -23.4749303  0.414853E-05  0.187E-02    0.80       1.3  T
   4    -23.4749327 -0.242736E-05  0.113E-02    0.81       2.2  T
   5    -23.4749354 -0.264454E-05  0.235E-03    0.81      10.6  T
   6    -23.4749354 -0.379578E-08  0.433E-04    0.81      57.7  T
   7    -23.4749354 -0.106763E-08  0.172E-04    0.81     145.5  T
     SCC iter.                  ...        0 min,  0.004 sec
     gradient                   ...        0 min,  0.001 sec
 * total energy  :   -23.2360875 Eh     change       -0.5503824E-03 Eh
   gradient norm :     0.0195539 Eh/α   predicted    -0.3420579E-03 ( -37.85%)
   displ. norm   :     0.1930210 α      lambda       -0.1311359E-02
   maximum displ.:     0.1475972 α      in ANC's #1, #4, #13, ...

........................................................................
.............................. CYCLE    7 ..............................
........................................................................

 iter      E             dE          RMSdq      gap      omega  full diag
   1    -23.4725485 -0.234725E+02  0.249E-01    0.80       0.0  T
   2    -23.4723597  0.188854E-03  0.188E-01    0.93       1.0  T
   3    -23.4725291 -0.169430E-03  0.146E-01    0.81       1.0  T
   4    -23.4727749 -0.245816E-03  0.215E-02    0.86       1.2  T
   5    -23.4727791 -0.411424E-05  0.676E-03    0.86       3.7  T
   6    -23.4727792 -0.114536E-06  0.238E-03    0.86      10.5  T
   7    -23.4727792 -0.211161E-07  0.622E-04    0.86      40.2  T
   8    -23.4727792 -0.106405E-08  0.182E-04    0.86     137.3  T
     SCC iter.                  ...        0 min,  0.005 sec
     gradient                   ...        0 min,  0.001 sec
 * total energy  :   -23.2367872 Eh     change       -0.6996577E-03 Eh
   gradient norm :     0.0385807 Eh/α   predicted    -0.6801057E-03 (  -2.79%)
   displ. norm   :     0.0394438 α      lambda       -0.3087319E-03
   maximum displ.:     0.0241036 α      in ANC's #1, #4, #2, ...

........................................................................
.............................. CYCLE    8 ..............................
........................................................................

 iter      E             dE          RMSdq      gap      omega  full diag
   1    -23.4730705 -0.234731E+02  0.415E-02    0.87       0.0  T
   2    -23.4730709 -0.429856E-06  0.249E-02    0.87       1.0  T
   3    -23.4730709  0.246220E-07  0.451E-03    0.87       5.5  T
   4    -23.4730710 -0.107118E-06  0.124E-03    0.87      20.2  T
   5    -23.4730710  0.210904E-07  0.119E-03    0.87      21.0  T
   6    -23.4730710 -0.264320E-07  0.172E-04    0.87     145.6  T
   7    -23.4730710 -0.261817E-09  0.539E-05    0.87     463.7  T
     SCC iter.                  ...        0 min,  0.004 sec
     gradient                   ...        0 min,  0.001 sec
 * total energy  :   -23.2370434 Eh     change       -0.2562045E-03 Eh
   gradient norm :     0.0195538 Eh/α   predicted    -0.1546056E-03 ( -39.66%)
   displ. norm   :     0.1694229 α      lambda       -0.6445394E-03
   maximum displ.:     0.1265534 α      in ANC's #1, #4, #2, ...

........................................................................
.............................. CYCLE    9 ..............................
........................................................................

 iter      E             dE          RMSdq      gap      omega  full diag
   1    -23.4721040 -0.234721E+02  0.191E-01    0.89       0.0  T
   2    -23.4719970  0.106989E-03  0.142E-01    0.98       1.0  T
   3    -23.4720577 -0.606828E-04  0.115E-01    0.89       1.0  T
   4    -23.4722207 -0.163040E-03  0.133E-02    0.93       1.9  T
   5    -23.4722224 -0.165884E-05  0.440E-03    0.93       5.7  T
   6    -23.4722224 -0.324005E-07  0.151E-03    0.93      16.6  T
   7    -23.4722224 -0.127640E-07  0.323E-04    0.93      77.3  T
   8    -23.4722224 -0.306823E-09  0.991E-05    0.93     252.3  T
     SCC iter.                  ...        0 min,  0.004 sec
     gradient                   ...        0 min,  0.001 sec
 * total energy  :   -23.2374031 Eh     change       -0.3596579E-03 Eh
   gradient norm :     0.0290066 Eh/α   predicted    -0.3315250E-03 (  -7.82%)
   displ. norm   :     0.0642279 α      lambda       -0.4590304E-03
   maximum displ.:     0.0492308 α      in ANC's #4, #18, #2, ...

........................................................................
.............................. CYCLE   10 ..............................
........................................................................

 iter      E             dE          RMSdq      gap      omega  full diag
   1    -23.4747612 -0.234748E+02  0.666E-02    0.96       0.0  T
   2    -23.4747550  0.626495E-05  0.471E-02    0.94       1.0  T
   3    -23.4747453  0.964437E-05  0.398E-02    0.97       1.0  T
   4    -23.4747705 -0.252020E-04  0.358E-03    0.95       7.0  T
   5    -23.4747706 -0.762675E-07  0.151E-03    0.95      16.6  T
   6    -23.4747706 -0.489247E-08  0.671E-04    0.95      37.3  T
   7    -23.4747706 -0.110606E-08  0.254E-04    0.95      98.5  T
     SCC iter.                  ...        0 min,  0.004 sec
     gradient                   ...        0 min,  0.001 sec
 * total energy  :   -23.2375079 Eh     change       -0.1048755E-03 Eh
   gradient norm :     0.0307448 Eh/α   predicted    -0.2304623E-03 ( 119.75%)
   displ. norm   :     0.0776668 α      lambda       -0.3184259E-03
   maximum displ.:     0.0682102 α      in ANC's #1, #4, #2, ...

........................................................................
.............................. CYCLE   11 ..............................
........................................................................

 iter      E             dE          RMSdq      gap      omega  full diag
   1    -23.4739720 -0.234740E+02  0.906E-02    0.95       0.0  T
   2    -23.4739229  0.491077E-04  0.822E-02    1.01       1.0  T
   3    -23.4740119 -0.890671E-04  0.444E-02    0.96       1.0  T
   4    -23.4740240 -0.121076E-04  0.560E-03    0.97       4.5  T
   5    -23.4740241 -0.120087E-06  0.176E-03    0.97      14.2  T
   6    -23.4740242 -0.519914E-08  0.692E-04    0.97      36.1  T
   7    -23.4740242 -0.397598E-09  0.185E-04    0.97     135.4  T
     SCC iter.                  ...        0 min,  0.004 sec
     gradient                   ...        0 min,  0.001 sec
 * total energy  :   -23.2377531 Eh     change       -0.2451563E-03 Eh
   gradient norm :     0.0122027 Eh/α   predicted    -0.1601742E-03 ( -34.66%)
   displ. norm   :     0.1379944 α      lambda       -0.3806078E-03
   maximum displ.:     0.1080006 α      in ANC's #1, #4, #8, ...

........................................................................
.............................. CYCLE   12 ..............................
........................................................................

 iter      E             dE          RMSdq      gap      omega  full diag
   1    -23.4731336 -0.234731E+02  0.148E-01    0.97       0.0  T
   2    -23.4730140  0.119599E-03  0.132E-01    1.06       1.0  T
   3    -23.4732248 -0.210769E-03  0.729E-02    0.99       1.0  T
   4    -23.4732594 -0.345974E-04  0.871E-03    1.01       2.9  T
   5    -23.4732597 -0.268939E-06  0.328E-03    1.01       7.6  T
   6    -23.4732597 -0.114680E-07  0.123E-03    1.01      20.4  T
   7    -23.4732597 -0.120410E-08  0.288E-04    1.01      86.8  T
   8    -23.4732597 -0.340350E-09  0.911E-05    1.01     274.5  T
     SCC iter.                  ...        0 min,  0.005 sec
     gradient                   ...        0 min,  0.001 sec
 * total energy  :   -23.2378855 Eh     change       -0.1324499E-03 Eh
   gradient norm :     0.0567468 Eh/α   predicted    -0.1939273E-03 (  46.42%)
   displ. norm   :     0.0503182 α      lambda       -0.3626249E-03
   maximum displ.:     0.0356681 α      in ANC's #1, #13, #8, ...

........................................................................
.............................. CYCLE   13 ..............................
........................................................................

 iter      E             dE          RMSdq      gap      omega  full diag
   1    -23.4746540 -0.234747E+02  0.729E-02    1.03       0.0  T
   2    -23.4746187  0.353740E-04  0.647E-02    0.98       1.0  T
   3    -23.4746794 -0.607411E-04  0.356E-02    1.02       1.0  T
   4    -23.4746899 -0.105187E-04  0.523E-03    1.01       4.8  T
   5    -23.4746900 -0.989075E-07  0.168E-03    1.01      14.9  T
   6    -23.4746900 -0.552009E-08  0.660E-04    1.01      37.9  T
   7    -23.4746900 -0.686487E-09  0.179E-04    1.01     139.7  T
     SCC iter.                  ...        0 min,  0.004 sec
     gradient                   ...        0 min,  0.001 sec
 * total energy  :   -23.2380738 Eh     change       -0.1882872E-03 Eh
   gradient norm :     0.0232980 Eh/α   predicted    -0.1817711E-03 (  -3.46%)
   displ. norm   :     0.0677454 α      lambda       -0.1638621E-03
   maximum displ.:     0.0498029 α      in ANC's #4, #1, #8, ...

........................................................................
.............................. CYCLE   14 ..............................
........................................................................

 iter      E             dE          RMSdq      gap      omega  full diag
   1    -23.4748773 -0.234749E+02  0.598E-02    1.03       0.0  T
   2    -23.4748758  0.147033E-05  0.375E-02    1.04       1.0  T
   3    -23.4748514  0.244379E-04  0.375E-02    1.01       1.0  T
   4    -23.4748795 -0.281419E-04  0.259E-03    1.03       9.7  T
   5    -23.4748796 -0.436592E-07  0.137E-03    1.03      18.2  T
   6    -23.4748796 -0.529074E-09  0.227E-04    1.03     110.1  T
   7    -23.4748796 -0.502684E-09  0.831E-05    1.03     301.0  T
     SCC iter.                  ...        0 min,  0.004 sec
     gradient                   ...        0 min,  0.001 sec
 * total energy  :   -23.2382119 Eh     change       -0.1381279E-03 Eh
   gradient norm :     0.0136405 Eh/α   predicted    -0.8230631E-04 ( -40.41%)
   displ. norm   :     0.2076521 α      lambda       -0.3555880E-03
   maximum displ.:     0.1468074 α      in ANC's #4, #1, #8, ...

........................................................................
.............................. CYCLE   15 ..............................
........................................................................

 iter      E             dE          RMSdq      gap      omega  full diag
   1    -23.4738199 -0.234738E+02  0.195E-01    1.05       0.0  T
   2    -23.4737612  0.586527E-04  0.134E-01    1.12       1.0  T
   3    -23.4736684  0.928683E-04  0.122E-01    1.03       1.0  T
   4    -23.4738938 -0.225483E-03  0.103E-02    1.08       2.4  T
   5    -23.4738948 -0.100224E-05  0.456E-03    1.08       5.5  T
   6    -23.4738948  0.420444E-08  0.147E-03    1.08      16.9  T
   7    -23.4738949 -0.232978E-07  0.311E-04    1.08      80.4  T
   8    -23.4738949 -0.226120E-09  0.118E-04    1.08     211.4  T
     SCC iter.                  ...        0 min,  0.004 sec
     gradient                   ...        0 min,  0.001 sec
 * total energy  :   -23.2384129 Eh     change       -0.2009739E-03 Eh
   gradient norm :     0.0279950 Eh/α   predicted    -0.1854597E-03 (  -7.72%)
   displ. norm   :     0.0432378 α      lambda       -0.1224955E-03
   maximum displ.:     0.0351599 α      in ANC's #4, #3, #6, ...

........................................................................
.............................. CYCLE   16 ..............................
........................................................................

 iter      E             dE          RMSdq      gap      omega  full diag
   1    -23.4743141 -0.234743E+02  0.387E-02    1.10       0.0  T
   2    -23.4743121  0.199354E-05  0.281E-02    1.09       1.0  T
   3    -23.4743089  0.324230E-05  0.219E-02    1.10       1.1  T
   4    -23.4743169 -0.803682E-05  0.145E-03    1.09      17.2  T
   5    -23.4743169 -0.986455E-08  0.718E-04    1.09      34.8  T
   6    -23.4743169 -0.120463E-08  0.281E-04    1.09      88.9  T
     SCC iter.                  ...        0 min,  0.003 sec
     gradient                   ...        0 min,  0.001 sec
 * total energy  :   -23.2384946 Eh     change       -0.8164541E-04 Eh
   gradient norm :     0.0078935 Eh/α   predicted    -0.6136336E-04 ( -24.84%)
   displ. norm   :     0.0946732 α      lambda       -0.9855440E-04
   maximum displ.:     0.0677266 α      in ANC's #4, #1, #3, ...

........................................................................
.............................. CYCLE   17 ..............................
........................................................................

 iter      E             dE          RMSdq      gap      omega  full diag
   1    -23.4742757 -0.234743E+02  0.869E-02    1.11       0.0  T
   2    -23.4742723  0.344343E-05  0.543E-02    1.12       1.0  T
   3    -23.4742242  0.481361E-04  0.545E-02    1.09       1.0  T
   4    -23.4742814 -0.572500E-04  0.390E-03    1.12       6.4  T
   5    -23.4742815 -0.959718E-07  0.200E-03    1.12      12.5  T
   6    -23.4742815 -0.648573E-09  0.408E-04    1.12      61.2  T
   7    -23.4742815 -0.173447E-08  0.113E-04    1.12     220.8  T
     SCC iter.                  ...        0 min,  0.004 sec
     gradient                   ...        0 min,  0.001 sec
 * total energy  :   -23.2385630 Eh     change       -0.6844271E-04 Eh
   gradient norm :     0.0090478 Eh/α   predicted    -0.4971799E-04 ( -27.36%)
   displ. norm   :     0.0528937 α      lambda       -0.7086265E-04
   maximum displ.:     0.0298869 α      in ANC's #4, #1, #3, ...

........................................................................
.............................. CYCLE   18 ..............................
........................................................................

 iter      E             dE          RMSdq      gap      omega  full diag
   1    -23.4748420 -0.234748E+02  0.480E-02    1.13       0.0  T
   2    -23.4748423 -0.303703E-06  0.291E-02    1.13       1.0  T
   3    -23.4748370  0.531985E-05  0.163E-02    1.12       1.5  T
   4    -23.4748426 -0.558283E-05  0.313E-03    1.13       8.0  T
   5    -23.4748427 -0.146727E-06  0.113E-03    1.13      22.1  T
   6    -23.4748427 -0.554209E-09  0.276E-04    1.13      90.6  T
   7    -23.4748427 -0.166192E-09  0.820E-05    1.13     305.0  T
     SCC iter.                  ...        0 min,  0.004 sec
     gradient                   ...        0 min,  0.001 sec
 * total energy  :   -23.2386120 Eh     change       -0.4901791E-04 Eh
   gradient norm :     0.0062039 Eh/α   predicted    -0.3552962E-04 ( -27.52%)
   displ. norm   :     0.0542120 α      lambda       -0.5099508E-04
   maximum displ.:     0.0343916 α      in ANC's #1, #3, #4, ...

........................................................................
.............................. CYCLE   19 ..............................
........................................................................

 iter      E             dE          RMSdq      gap      omega  full diag
   1    -23.4750570 -0.234751E+02  0.490E-02    1.13       0.0  T
   2    -23.4750552  0.182247E-05  0.319E-02    1.15       1.0  T
   3    -23.4750438  0.113933E-04  0.309E-02    1.13       1.0  T
   4    -23.4750600 -0.162154E-04  0.245E-03    1.14      10.2  T
   5    -23.4750601 -0.461129E-07  0.113E-03    1.14      22.2  T
   6    -23.4750601 -0.135689E-08  0.250E-04    1.14      99.9  T
   7    -23.4750601 -0.240508E-09  0.758E-05    1.14     329.9  T
     SCC iter.                  ...        0 min,  0.004 sec
     gradient                   ...        0 min,  0.001 sec
 * total energy  :   -23.2386494 Eh     change       -0.3740823E-04 Eh
   gradient norm :     0.0109045 Eh/α   predicted    -0.2557107E-04 ( -31.64%)
   displ. norm   :     0.0602342 α      lambda       -0.8416084E-04
   maximum displ.:     0.0392247 α      in ANC's #3, #1, #5, ...

........................................................................
.............................. CYCLE   20 ..............................
........................................................................

 iter      E             dE          RMSdq      gap      omega  full diag
   1    -23.4758843 -0.234759E+02  0.415E-02    1.15       0.0  T
   2    -23.4758848 -0.453130E-06  0.255E-02    1.15       1.0  T
   3    -23.4758846  0.175402E-06  0.437E-03    1.15       5.7  T
   4    -23.4758847 -0.826262E-07  0.304E-03    1.15       8.2  T
   5    -23.4758849 -0.177460E-06  0.891E-04    1.15      28.0  T
   6    -23.4758849 -0.151666E-08  0.297E-04    1.15      84.3  T
     SCC iter.                  ...        0 min,  0.004 sec
     gradient                   ...        0 min,  0.001 sec
 * total energy  :   -23.2387064 Eh     change       -0.5697059E-04 Eh
   gradient norm :     0.0073606 Eh/α   predicted    -0.4223338E-04 ( -25.87%)
   displ. norm   :     0.1016872 α      lambda       -0.1057311E-03
   maximum displ.:     0.0683759 α      in ANC's #1, #3, #5, ...
 * RMSD in coord.:     0.3074574 α      energy gain  -0.3611092E+00 Eh

generating ANC from model Hessian ...
Using Lindh-Hessian (1995)
 Shifting diagonal of input Hessian by    1.8099112364234657E-002
 Lowest  eigenvalues of input Hessian
    0.010000    0.000000    0.000000    0.000000    0.000000    0.000000
    0.000000    0.021068    0.023998    0.031821    0.035450    0.050835
    0.056177    0.064184    0.067360    0.068014    0.070151    0.073598
 Highest eigenvalues
    1.280142    1.344538    1.403954    1.450244    5.207877   11.670929


........................................................................
.............................. CYCLE   21 ..............................
........................................................................

 iter      E             dE          RMSdq      gap      omega  full diag
   1    -23.4757189 -0.234757E+02  0.774E-02    1.15       0.0  T
   2    -23.4757072  0.116477E-04  0.569E-02    1.18       1.0  T
   3    -23.4757098 -0.258895E-05  0.449E-02    1.15       1.0  T
   4    -23.4757349 -0.250250E-04  0.338E-03    1.16       7.4  T
   5    -23.4757349 -0.803152E-07  0.145E-03    1.16      17.2  T
   6    -23.4757349 -0.408648E-08  0.420E-04    1.16      59.5  T
   7    -23.4757349 -0.398494E-09  0.112E-04    1.16     223.3  T
     SCC iter.                  ...        0 min,  0.004 sec
     gradient                   ...        0 min,  0.001 sec
 * total energy  :   -23.2387722 Eh     change       -0.6576430E-04 Eh
   gradient norm :     0.0234048 Eh/α   predicted     0.0000000E+00 (-100.00%)
   displ. norm   :     0.1528976 α      lambda       -0.4703204E-03
   maximum displ.:     0.1459480 α      in ANC's #1, #6, #5, ...

........................................................................
.............................. CYCLE   22 ..............................
........................................................................

 iter      E             dE          RMSdq      gap      omega  full diag
   1    -23.4751595 -0.234752E+02  0.146E-01    1.20       0.0  T
   2    -23.4751633 -0.385866E-05  0.921E-02    1.21       1.0  T
   3    -23.4751469  0.164427E-04  0.291E-02    1.19       1.0  T
   4    -23.4751628 -0.159230E-04  0.112E-02    1.21       2.2  T
   5    -23.4751654 -0.259079E-05  0.252E-03    1.21       9.9  T
   6    -23.4751654 -0.468296E-08  0.658E-04    1.21      38.0  T
   7    -23.4751654 -0.288359E-08  0.216E-04    1.21     115.5  T
     SCC iter.                  ...        0 min,  0.004 sec
     gradient                   ...        0 min,  0.001 sec
 * total energy  :   -23.2391088 Eh     change       -0.3366518E-03 Eh
   gradient norm :     0.0158204 Eh/α   predicted    -0.2406551E-03 ( -28.52%)
   displ. norm   :     0.1674428 α      lambda       -0.3393400E-03
   maximum displ.:     0.1567382 α      in ANC's #1, #5, #3, ...

........................................................................
.............................. CYCLE   23 ..............................
........................................................................

 iter      E             dE          RMSdq      gap      omega  full diag
   1    -23.4739171 -0.234739E+02  0.150E-01    1.21       0.0  T
   2    -23.4738753  0.418108E-04  0.118E-01    1.27       1.0  T
   3    -23.4739187 -0.434241E-04  0.811E-02    1.21       1.0  T
   4    -23.4739892 -0.705542E-04  0.717E-03    1.24       3.5  T
   5    -23.4739895 -0.303758E-06  0.269E-03    1.24       9.3  T
   6    -23.4739895 -0.644791E-08  0.124E-03    1.24      20.1  T
   7    -23.4739895 -0.447672E-08  0.354E-04    1.24      70.6  T
   8    -23.4739895 -0.472980E-09  0.130E-04    1.24     192.4  T
     SCC iter.                  ...        0 min,  0.004 sec
     gradient                   ...        0 min,  0.001 sec
 * total energy  :   -23.2392343 Eh     change       -0.1254509E-03 Eh
   gradient norm :     0.0559762 Eh/α   predicted    -0.1744275E-03 (  39.04%)
   displ. norm   :     0.1254762 α      lambda       -0.5982317E-03
   maximum displ.:     0.0778251 α      in ANC's #3, #1, #5, ...

........................................................................
.............................. CYCLE   24 ..............................
........................................................................

 iter      E             dE          RMSdq      gap      omega  full diag
   1    -23.4747445 -0.234747E+02  0.992E-02    1.29       0.0  T
   2    -23.4747347  0.979437E-05  0.634E-02    1.25       1.0  T
   3    -23.4747105  0.241568E-04  0.576E-02    1.30       1.0  T
   4    -23.4747619 -0.513535E-04  0.306E-03    1.27       8.2  T
   5    -23.4747619 -0.226730E-07  0.167E-03    1.27      14.9  T
   6    -23.4747619 -0.513743E-08  0.622E-04    1.27      40.2  T
   7    -23.4747619 -0.182808E-08  0.254E-04    1.27      98.4  T
     SCC iter.                  ...        0 min,  0.004 sec
     gradient                   ...        0 min,  0.001 sec
 * total energy  :   -23.2394802 Eh     change       -0.2458886E-03 Eh
   gradient norm :     0.0120986 Eh/α   predicted    -0.3038272E-03 (  23.56%)
   displ. norm   :     0.1609521 α      lambda       -0.3332663E-03
   maximum displ.:     0.1433228 α      in ANC's #1, #3, #5, ...

........................................................................
.............................. CYCLE   25 ..............................
........................................................................

 iter      E             dE          RMSdq      gap      omega  full diag
   1    -23.4746796 -0.234747E+02  0.126E-01    1.26       0.0  T
   2    -23.4746689  0.107078E-04  0.888E-02    1.30       1.0  T
   3    -23.4746170  0.519281E-04  0.731E-02    1.25       1.0  T
   4    -23.4747065 -0.894660E-04  0.612E-03    1.28       4.1  T
   5    -23.4747068 -0.287553E-06  0.248E-03    1.28      10.1  T
   6    -23.4747068 -0.658585E-08  0.953E-04    1.28      26.2  T
   7    -23.4747068 -0.266643E-08  0.194E-04    1.28     129.1  T
     SCC iter.                  ...        0 min,  0.004 sec
     gradient                   ...        0 min,  0.001 sec
 * total energy  :   -23.2396983 Eh     change       -0.2181713E-03 Eh
   gradient norm :     0.0292984 Eh/α   predicted    -0.1709491E-03 ( -21.64%)
   displ. norm   :     0.0979200 α      lambda       -0.2869484E-03
   maximum displ.:     0.0700493 α      in ANC's #1, #3, #12, ...

........................................................................
.............................. CYCLE   26 ..............................
........................................................................

 iter      E             dE          RMSdq      gap      omega  full diag
   1    -23.4758774 -0.234759E+02  0.857E-02    1.29       0.0  T
   2    -23.4758782 -0.767381E-06  0.516E-02    1.28       1.0  T
   3    -23.4758568  0.213802E-04  0.331E-02    1.30       1.0  T
   4    -23.4758799 -0.231428E-04  0.404E-03    1.29       6.2  T
   5    -23.4758802 -0.232235E-06  0.171E-03    1.29      14.6  T
   6    -23.4758802 -0.496622E-08  0.424E-04    1.29      59.0  T
   7    -23.4758802 -0.628805E-09  0.159E-04    1.29     157.1  T
     SCC iter.                  ...        0 min,  0.004 sec
     gradient                   ...        0 min,  0.001 sec
 * total energy  :   -23.2398852 Eh     change       -0.1868992E-03 Eh
   gradient norm :     0.0269245 Eh/α   predicted    -0.1448508E-03 ( -22.50%)
   displ. norm   :     0.1337814 α      lambda       -0.2254958E-03
   maximum displ.:     0.0933038 α      in ANC's #1, #3, #2, ...

........................................................................
.............................. CYCLE   27 ..............................
........................................................................

 iter      E             dE          RMSdq      gap      omega  full diag
   1    -23.4763587 -0.234764E+02  0.950E-02    1.30       0.0  T
   2    -23.4763596 -0.900835E-06  0.575E-02    1.30       1.0  T
   3    -23.4763565  0.309736E-05  0.124E-02    1.29       2.0  T
   4    -23.4763595 -0.298949E-05  0.523E-03    1.30       4.8  T
   5    -23.4763600 -0.491030E-06  0.169E-03    1.30      14.8  T
   6    -23.4763600 -0.124706E-08  0.243E-04    1.30     102.9  T
   7    -23.4763600 -0.238749E-09  0.916E-05    1.30     272.8  T
     SCC iter.                  ...        0 min,  0.004 sec
     gradient                   ...        0 min,  0.001 sec
 * total energy  :   -23.2400587 Eh     change       -0.1734801E-03 Eh
   gradient norm :     0.0256517 Eh/α   predicted    -0.1147659E-03 ( -33.84%)
   displ. norm   :     0.1877524 α      lambda       -0.3344690E-03
   maximum displ.:     0.1189203 α      in ANC's #3, #1, #2, ...

........................................................................
.............................. CYCLE   28 ..............................
........................................................................

 iter      E             dE          RMSdq      gap      omega  full diag
   1    -23.4769368 -0.234769E+02  0.128E-01    1.33       0.0  T
   2    -23.4769330  0.377016E-05  0.783E-02    1.31       1.0  T
   3    -23.4768586  0.743774E-04  0.682E-02    1.35       1.0  T
   4    -23.4769489 -0.902390E-04  0.346E-03    1.32       7.2  T
   5    -23.4769489 -0.370793E-07  0.184E-03    1.32      13.6  T
   6    -23.4769489 -0.162895E-08  0.484E-04    1.32      51.7  T
   7    -23.4769489 -0.663139E-09  0.152E-04    1.32     164.3  T
     SCC iter.                  ...        0 min,  0.004 sec
     gradient                   ...        0 min,  0.001 sec
 * total energy  :   -23.2402608 Eh     change       -0.2021199E-03 Eh
   gradient norm :     0.0080489 Eh/α   predicted    -0.1731314E-03 ( -14.34%)
   displ. norm   :     0.6513019 α      lambda       -0.8077279E-03
   maximum displ.:     0.4791678 α      in ANC's #1, #3, #2, ...

........................................................................
.............................. CYCLE   29 ..............................
........................................................................

 iter      E             dE          RMSdq      gap      omega  full diag
   1    -23.4702115 -0.234702E+02  0.462E-01    1.17       0.0  T
   2    -23.4696229  0.588649E-03  0.367E-01    1.40       1.0  T
   3    -23.4705701 -0.947228E-03  0.239E-01    1.20       1.0  T
   4    -23.4711237 -0.553538E-03  0.211E-02    1.27       1.2  T
   5    -23.4711265 -0.284746E-05  0.856E-03    1.26       2.9  T
   6    -23.4711267 -0.180136E-06  0.378E-03    1.26       6.6  T
   7    -23.4711267 -0.967787E-08  0.111E-03    1.26      22.6  T
   8    -23.4711267 -0.266935E-08  0.302E-04    1.26      82.9  T
   9    -23.4711267 -0.278423E-09  0.142E-04    1.26     176.4  T
     SCC iter.                  ...        0 min,  0.004 sec
     gradient                   ...        0 min,  0.001 sec
 * total energy  :   -23.2366896 Eh     change        0.3571247E-02 Eh
   gradient norm :     0.2406100 Eh/α   predicted    -0.5752159E-03 (-116.11%)
   displ. norm   :     0.3216725 α      lambda       -0.1086999E-01
   maximum displ.:     0.2793154 α      in ANC's #1, #3, #6, ...

........................................................................
.............................. CYCLE   30 ..............................
........................................................................

 iter      E             dE          RMSdq      gap      omega  full diag
   1    -23.4754880 -0.234755E+02  0.294E-01    1.46       0.0  T
   2    -23.4752336  0.254369E-03  0.254E-01    1.25       1.0  T
   3    -23.4760421 -0.808536E-03  0.136E-01    1.37       1.0  T
   4    -23.4761420 -0.998725E-04  0.184E-02    1.33       1.4  T
   5    -23.4761451 -0.307709E-05  0.635E-03    1.33       3.9  T
   6    -23.4761452 -0.127089E-06  0.281E-03    1.33       8.9  T
   7    -23.4761452 -0.156933E-07  0.795E-04    1.33      31.5  T
   8    -23.4761452 -0.125027E-08  0.152E-04    1.33     164.0  T
     SCC iter.                  ...        0 min,  0.005 sec
     gradient                   ...        0 min,  0.001 sec
 * total energy  :   -23.2404115 Eh     change       -0.3721946E-02 Eh
   gradient norm :     0.0240177 Eh/α   predicted    -0.5997366E-02 (  61.14%)
   displ. norm   :     0.0635925 α      lambda       -0.2633115E-03
   maximum displ.:     0.0451568 α      in ANC's #3, #7, #6, ...

........................................................................
.............................. CYCLE   31 ..............................
........................................................................

 iter      E             dE          RMSdq      gap      omega  full diag
   1    -23.4773228 -0.234773E+02  0.614E-02    1.32       0.0  T
   2    -23.4773199  0.289367E-05  0.424E-02    1.34       1.0  T
   3    -23.4773160  0.385790E-05  0.322E-02    1.32       1.0  T
   4    -23.4773317 -0.157404E-04  0.315E-03    1.33       7.9  T
   5    -23.4773318 -0.501733E-07  0.132E-03    1.33      19.0  T
   6    -23.4773318 -0.456612E-08  0.524E-04    1.33      47.7  T
   7    -23.4773318 -0.392795E-09  0.182E-04    1.33     137.2  T
     SCC iter.                  ...        0 min,  0.004 sec
     gradient                   ...        0 min,  0.001 sec
 * total energy  :   -23.2405801 Eh     change       -0.1685827E-03 Eh
   gradient norm :     0.0051437 Eh/α   predicted    -0.1321895E-03 ( -21.59%)
   displ. norm   :     0.0524934 α      lambda       -0.1282892E-03
   maximum displ.:     0.0332699 α      in ANC's #2, #1, #13, ...

........................................................................
.............................. CYCLE   32 ..............................
........................................................................

 iter      E             dE          RMSdq      gap      omega  full diag
   1    -23.4772379 -0.234772E+02  0.432E-02    1.32       0.0  T
   2    -23.4772376  0.240882E-06  0.284E-02    1.33       1.0  T
   3    -23.4772297  0.795987E-05  0.237E-02    1.32       1.1  T
   4    -23.4772403 -0.106236E-04  0.265E-03    1.33       9.4  T
   5    -23.4772403 -0.529711E-07  0.101E-03    1.33      24.9  T
   6    -23.4772403 -0.555978E-09  0.323E-04    1.33      77.3  T
   7    -23.4772403 -0.255266E-09  0.973E-05    1.33     256.9  T
     SCC iter.                  ...        0 min,  0.004 sec
     gradient                   ...        0 min,  0.001 sec
 * total energy  :   -23.2406820 Eh     change       -0.1018405E-03 Eh
   gradient norm :     0.0148413 Eh/α   predicted    -0.6432163E-04 ( -36.84%)
   displ. norm   :     0.1432360 α      lambda       -0.2285506E-03
   maximum displ.:     0.0971966 α      in ANC's #2, #1, #3, ...

........................................................................
.............................. CYCLE   33 ..............................
........................................................................

 iter      E             dE          RMSdq      gap      omega  full diag
   1    -23.4765312 -0.234765E+02  0.887E-02    1.31       0.0  T
   2    -23.4765310  0.269195E-06  0.574E-02    1.33       1.0  T
   3    -23.4764882  0.427149E-04  0.485E-02    1.30       1.0  T
   4    -23.4765379 -0.496038E-04  0.463E-03    1.32       5.4  T
   5    -23.4765381 -0.200409E-06  0.178E-03    1.32      14.0  T
   6    -23.4765381 -0.649827E-09  0.451E-04    1.32      55.5  T
   7    -23.4765381 -0.979277E-09  0.131E-04    1.32     190.9  T
     SCC iter.                  ...        0 min,  0.004 sec
     gradient                   ...        0 min,  0.001 sec
 * total energy  :   -23.2408137 Eh     change       -0.1317856E-03 Eh
   gradient norm :     0.0382392 Eh/α   predicted    -0.1166184E-03 ( -11.51%)
   displ. norm   :     0.0661026 α      lambda       -0.1225361E-03
   maximum displ.:     0.0405445 α      in ANC's #2, #1, #3, ...

........................................................................
.............................. CYCLE   34 ..............................
........................................................................

 iter      E             dE          RMSdq      gap      omega  full diag
   1    -23.4763343 -0.234763E+02  0.299E-02    1.33       0.0  T
   2    -23.4763342  0.873420E-07  0.190E-02    1.32       1.3  T
   3    -23.4763301  0.411386E-05  0.163E-02    1.33       1.5  T
   4    -23.4763351 -0.500211E-05  0.152E-03    1.32      16.5  T
   5    -23.4763351 -0.301085E-07  0.495E-04    1.32      50.5  T
   6    -23.4763351 -0.256023E-09  0.197E-04    1.32     126.7  T
     SCC iter.                  ...        0 min,  0.004 sec
     gradient                   ...        0 min,  0.001 sec
 * total energy  :   -23.2409229 Eh     change       -0.1091965E-03 Eh
   gradient norm :     0.0324353 Eh/α   predicted    -0.6153368E-04 ( -43.65%)
   displ. norm   :     0.2254220 α      lambda       -0.4188959E-03
   maximum displ.:     0.1380442 α      in ANC's #2, #1, #3, ...

........................................................................
.............................. CYCLE   35 ..............................
........................................................................

 iter      E             dE          RMSdq      gap      omega  full diag
   1    -23.4762225 -0.234762E+02  0.989E-02    1.33       0.0  T
   2    -23.4762228 -0.304242E-06  0.624E-02    1.31       1.0  T
   3    -23.4761819  0.409243E-04  0.511E-02    1.34       1.0  T
   4    -23.4762306 -0.487437E-04  0.640E-03    1.31       3.9  T
   5    -23.4762312 -0.621711E-06  0.165E-03    1.31      15.1  T
   6    -23.4762312 -0.204923E-08  0.689E-04    1.31      36.3  T
   7    -23.4762312 -0.701952E-09  0.190E-04    1.31     131.6  T
     SCC iter.                  ...        0 min,  0.004 sec
     gradient                   ...        0 min,  0.001 sec
 * total energy  :   -23.2412162 Eh     change       -0.2932211E-03 Eh
   gradient norm :     0.0172882 Eh/α   predicted    -0.2200917E-03 ( -24.94%)
   displ. norm   :     0.2025793 α      lambda       -0.2242464E-03
   maximum displ.:     0.1204928 α      in ANC's #2, #1, #3, ...

........................................................................
.............................. CYCLE   36 ..............................
........................................................................

 iter      E             dE          RMSdq      gap      omega  full diag
   1    -23.4761847 -0.234762E+02  0.925E-02    1.29       0.0  T
   2    -23.4761867 -0.201708E-05  0.578E-02    1.30       1.0  T
   3    -23.4761697  0.169868E-04  0.291E-02    1.28       1.0  T
   4    -23.4761867 -0.170604E-04  0.865E-03    1.30       2.9  T
   5    -23.4761883 -0.153988E-05  0.164E-03    1.29      15.3  T
   6    -23.4761883 -0.482885E-09  0.300E-04    1.29      83.3  T
   7    -23.4761883 -0.596856E-09  0.929E-05    1.29     269.2  T
     SCC iter.                  ...        0 min,  0.004 sec
     gradient                   ...        0 min,  0.001 sec
 * total energy  :   -23.2413555 Eh     change       -0.1393593E-03 Eh
   gradient norm :     0.0361930 Eh/α   predicted    -0.1167219E-03 ( -16.24%)
   displ. norm   :     0.2112613 α      lambda       -0.4771487E-03
   maximum displ.:     0.1212326 α      in ANC's #1, #2, #6, ...

........................................................................
.............................. CYCLE   37 ..............................
........................................................................

 iter      E             dE          RMSdq      gap      omega  full diag
   1    -23.4782640 -0.234783E+02  0.996E-02    1.32       0.0  T
   2    -23.4782515  0.125249E-04  0.710E-02    1.27       1.0  T
   3    -23.4782646 -0.131003E-04  0.536E-02    1.31       1.0  T
   4    -23.4782977 -0.331360E-04  0.667E-03    1.29       3.7  T
   5    -23.4782980 -0.277738E-06  0.184E-03    1.29      13.6  T
   6    -23.4782980 -0.396900E-08  0.816E-04    1.29      30.7  T
   7    -23.4782980 -0.767432E-09  0.274E-04    1.29      91.3  T
     SCC iter.                  ...        0 min,  0.004 sec
     gradient                   ...        0 min,  0.001 sec
 * total energy  :   -23.2415246 Eh     change       -0.1691122E-03 Eh
   gradient norm :     0.0143738 Eh/α   predicted    -0.2492248E-03 (  47.37%)
   displ. norm   :     0.2623732 α      lambda       -0.3352377E-03
   maximum displ.:     0.1560929 α      in ANC's #1, #2, #3, ...

........................................................................
.............................. CYCLE   38 ..............................
........................................................................

 iter      E             dE          RMSdq      gap      omega  full diag
   1    -23.4774075 -0.234774E+02  0.123E-01    1.22       0.0  T
   2    -23.4773922  0.152222E-04  0.884E-02    1.26       1.0  T
   3    -23.4773624  0.298605E-04  0.709E-02    1.21       1.0  T
   4    -23.4774397 -0.773148E-04  0.764E-03    1.24       3.3  T
   5    -23.4774403 -0.559578E-06  0.228E-03    1.24      10.9  T
   6    -23.4774403 -0.467666E-08  0.750E-04    1.24      33.3  T
   7    -23.4774403 -0.181836E-08  0.185E-04    1.24     135.4  T
     SCC iter.                  ...        0 min,  0.004 sec
     gradient                   ...        0 min,  0.001 sec
 * total energy  :   -23.2414564 Eh     change        0.6818607E-04 Eh
   gradient norm :     0.0642729 Eh/α   predicted    -0.1791559E-03 (-362.75%)
   displ. norm   :     0.1905840 α      lambda       -0.7065266E-03
   maximum displ.:     0.1098619 α      in ANC's #1, #2, #3, ...

........................................................................
.............................. CYCLE   39 ..............................
........................................................................

 iter      E             dE          RMSdq      gap      omega  full diag
   1    -23.4781512 -0.234782E+02  0.922E-02    1.31       0.0  T
   2    -23.4781337  0.175353E-04  0.703E-02    1.26       1.0  T
   3    -23.4781704 -0.366949E-04  0.469E-02    1.30       1.0  T
   4    -23.4781909 -0.204955E-04  0.677E-03    1.28       3.7  T
   5    -23.4781912 -0.366690E-06  0.184E-03    1.28      13.6  T
   6    -23.4781912 -0.297573E-08  0.654E-04    1.28      38.2  T
   7    -23.4781912 -0.624318E-09  0.221E-04    1.28     113.3  T
     SCC iter.                  ...        0 min,  0.004 sec
     gradient                   ...        0 min,  0.001 sec
 * total energy  :   -23.2417262 Eh     change       -0.2697744E-03 Eh
   gradient norm :     0.0100159 Eh/α   predicted    -0.3660954E-03 (  35.70%)
   displ. norm   :     0.0522250 α      lambda       -0.1201236E-03
   maximum displ.:     0.0271502 α      in ANC's #1, #5, #2, ...

........................................................................
.............................. CYCLE   40 ..............................
........................................................................

 iter      E             dE          RMSdq      gap      omega  full diag
   1    -23.4782360 -0.234782E+02  0.354E-02    1.29       0.0  T
   2    -23.4782362 -0.234715E-06  0.219E-02    1.29       1.1  T
   3    -23.4782362  0.506698E-08  0.283E-03    1.29       8.8  T
   4    -23.4782362 -0.603179E-07  0.131E-03    1.29      19.0  T
   5    -23.4782363 -0.154020E-07  0.843E-04    1.29      29.6  T
   6    -23.4782363 -0.667528E-08  0.141E-04    1.29     177.2  T
     SCC iter.                  ...        0 min,  0.004 sec
     gradient                   ...        0 min,  0.001 sec
 * total energy  :   -23.2418221 Eh     change       -0.9585614E-04 Eh
   gradient norm :     0.0086675 Eh/α   predicted    -0.6022594E-04 ( -37.17%)
   displ. norm   :     0.2252526 α      lambda       -0.3798976E-03
   maximum displ.:     0.1382409 α      in ANC's #1, #5, #2, ...

........................................................................
.............................. CYCLE   41 ..............................
........................................................................

 iter      E             dE          RMSdq      gap      omega  full diag
   1    -23.4774718 -0.234775E+02  0.151E-01    1.26       0.0  T
   2    -23.4774768 -0.497382E-05  0.945E-02    1.27       1.0  T
   3    -23.4774396  0.372293E-04  0.414E-02    1.24       1.0  T
   4    -23.4774782 -0.385789E-04  0.111E-02    1.27       2.2  T
   5    -23.4774803 -0.217155E-05  0.315E-03    1.26       7.9  T
   6    -23.4774803 -0.569061E-08  0.742E-04    1.26      33.7  T
   7    -23.4774803 -0.169507E-08  0.261E-04    1.26      95.8  T
     SCC iter.                  ...        0 min,  0.004 sec
     gradient                   ...        0 min,  0.001 sec
 * total energy  :   -23.2419591 Eh     change       -0.1370055E-03 Eh
   gradient norm :     0.0553057 Eh/α   predicted    -0.1995964E-03 (  45.68%)
   displ. norm   :     0.0775185 α      lambda       -0.2654082E-03
   maximum displ.:     0.0535287 α      in ANC's #2, #1, #6, ...

........................................................................
.............................. CYCLE   42 ..............................
........................................................................

 iter      E             dE          RMSdq      gap      omega  full diag
   1    -23.4779486 -0.234779E+02  0.407E-02    1.30       0.0  T
   2    -23.4779425  0.607039E-05  0.364E-02    1.27       1.0  T
   3    -23.4779599 -0.173360E-04  0.184E-02    1.29       1.4  T
   4    -23.4779614 -0.153895E-05  0.252E-03    1.28       9.9  T
   5    -23.4779614 -0.302918E-07  0.821E-04    1.28      30.4  T
   6    -23.4779614 -0.235064E-08  0.340E-04    1.28      73.5  T
     SCC iter.                  ...        0 min,  0.003 sec
     gradient                   ...        0 min,  0.001 sec
 * total energy  :   -23.2420862 Eh     change       -0.1270866E-03 Eh
   gradient norm :     0.0120300 Eh/α   predicted    -0.1335017E-03 (   5.05%)
   displ. norm   :     0.0693095 α      lambda       -0.1263461E-03
   maximum displ.:     0.0484459 α      in ANC's #1, #5, #42, ...
 * RMSD in coord.:     0.5543994 α      energy gain  -0.3379760E-02 Eh

generating ANC from model Hessian ...
Using Lindh-Hessian (1995)
 Shifting diagonal of input Hessian by    2.4848179762644418E-002
 Lowest  eigenvalues of input Hessian
    0.010000    0.000000    0.000000    0.000000    0.000000    0.000000
    0.000000    0.027335    0.029719    0.037463    0.041995    0.057268
    0.065522    0.071815    0.072631    0.074824    0.076870    0.078622
 Highest eigenvalues
    1.284230    1.330058    1.404920    1.431914    4.396898   12.559543


........................................................................
.............................. CYCLE   43 ..............................
........................................................................

 iter      E             dE          RMSdq      gap      omega  full diag
   1    -23.4779878 -0.234780E+02  0.557E-02    1.28       0.0  T
   2    -23.4779877  0.956937E-07  0.346E-02    1.27       1.0  T
   3    -23.4779751  0.125801E-04  0.298E-02    1.29       1.0  T
   4    -23.4779908 -0.156529E-04  0.369E-03    1.27       6.8  T
   5    -23.4779909 -0.171851E-06  0.123E-03    1.27      20.3  T
   6    -23.4779910 -0.122249E-08  0.324E-04    1.27      77.2  T
   7    -23.4779910 -0.237474E-09  0.124E-04    1.27     201.8  T
     SCC iter.                  ...        0 min,  0.004 sec
     gradient                   ...        0 min,  0.001 sec
 * total energy  :   -23.2421986 Eh     change       -0.1124116E-03 Eh
   gradient norm :     0.0085897 Eh/α   predicted     0.0000000E+00 (-100.00%)
   displ. norm   :     0.2087717 α      lambda       -0.5134413E-03
   maximum displ.:     0.2058083 α      in ANC's #1, #3, #7, ...

........................................................................
.............................. CYCLE   44 ..............................
........................................................................

 iter      E             dE          RMSdq      gap      omega  full diag
   1    -23.4768141 -0.234768E+02  0.181E-01    1.22       0.0  T
   2    -23.4768238 -0.974582E-05  0.114E-01    1.21       1.0  T
   3    -23.4768222  0.162488E-05  0.221E-02    1.22       1.1  T
   4    -23.4768252 -0.293430E-05  0.105E-02    1.21       2.4  T
   5    -23.4768273 -0.216702E-05  0.316E-03    1.22       7.9  T
   6    -23.4768273 -0.216343E-07  0.608E-04    1.21      41.1  T
   7    -23.4768273 -0.103302E-08  0.289E-04    1.21      86.5  T
     SCC iter.                  ...        0 min,  0.004 sec
     gradient                   ...        0 min,  0.001 sec
 * total energy  :   -23.2423184 Eh     change       -0.1198341E-03 Eh
   gradient norm :     0.0518439 Eh/α   predicted    -0.2679148E-03 ( 123.57%)
   displ. norm   :     0.0716835 α      lambda       -0.6057034E-03
   maximum displ.:     0.0688635 α      in ANC's #1, #7, #2, ...

........................................................................
.............................. CYCLE   45 ..............................
........................................................................

 iter      E             dE          RMSdq      gap      omega  full diag
   1    -23.4782331 -0.234782E+02  0.756E-02    1.28       0.0  T
   2    -23.4782130  0.201017E-04  0.680E-02    1.22       1.0  T
   3    -23.4782702 -0.572508E-04  0.352E-02    1.26       1.0  T
   4    -23.4782754 -0.515913E-05  0.434E-03    1.25       5.8  T
   5    -23.4782755 -0.115042E-06  0.165E-03    1.25      15.1  T
   6    -23.4782755 -0.578997E-08  0.683E-04    1.25      36.6  T
   7    -23.4782755 -0.516213E-09  0.190E-04    1.25     131.5  T
     SCC iter.                  ...        0 min,  0.004 sec
     gradient                   ...        0 min,  0.001 sec
 * total energy  :   -23.2424446 Eh     change       -0.1262247E-03 Eh
   gradient norm :     0.0331766 Eh/α   predicted    -0.3044092E-03 ( 141.16%)
   displ. norm   :     0.0521680 α      lambda       -0.1922481E-03
   maximum displ.:     0.0487454 α      in ANC's #1, #7, #3, ...

........................................................................
.............................. CYCLE   46 ..............................
........................................................................

 iter      E             dE          RMSdq      gap      omega  full diag
   1    -23.4780414 -0.234780E+02  0.403E-02    1.23       0.0  T
   2    -23.4780399  0.146188E-05  0.301E-02    1.25       1.0  T
   3    -23.4780412 -0.126221E-05  0.218E-02    1.23       1.1  T
   4    -23.4780465 -0.524687E-05  0.303E-03    1.24       8.2  T
   5    -23.4780465 -0.942851E-07  0.809E-04    1.24      30.9  T
   6    -23.4780465 -0.742180E-09  0.283E-04    1.24      88.4  T
     SCC iter.                  ...        0 min,  0.004 sec
     gradient                   ...        0 min,  0.001 sec
 * total energy  :   -23.2425666 Eh     change       -0.1220074E-03 Eh
   gradient norm :     0.0084369 Eh/α   predicted    -0.9638548E-04 ( -21.00%)
   displ. norm   :     0.1381085 α      lambda       -0.1966798E-03
   maximum displ.:     0.1336913 α      in ANC's #1, #3, #7, ...

........................................................................
.............................. CYCLE   47 ..............................
........................................................................

 iter      E             dE          RMSdq      gap      omega  full diag
   1    -23.4767261 -0.234767E+02  0.109E-01    1.19       0.0  T
   2    -23.4767287 -0.264948E-05  0.695E-02    1.19       1.0  T
   3    -23.4767158  0.129450E-04  0.254E-02    1.18       1.0  T
   4    -23.4767295 -0.137473E-04  0.729E-03    1.19       3.4  T
   5    -23.4767306 -0.101895E-05  0.207E-03    1.19      12.1  T
   6    -23.4767306 -0.843692E-08  0.354E-04    1.19      70.5  T
   7    -23.4767306 -0.290665E-09  0.211E-04    1.19     118.3  T
     SCC iter.                  ...        0 min,  0.004 sec
     gradient                   ...        0 min,  0.001 sec
 * total energy  :   -23.2425539 Eh     change        0.1274940E-04 Eh
   gradient norm :     0.0485934 Eh/α   predicted    -0.1002153E-03 (-886.04%)
   displ. norm   :     0.0627478 α      lambda       -0.2961839E-03
   maximum displ.:     0.0608406 α      in ANC's #1, #3, #7, ...

........................................................................
.............................. CYCLE   48 ..............................
........................................................................

 iter      E             dE          RMSdq      gap      omega  full diag
   1    -23.4780720 -0.234781E+02  0.538E-02    1.23       0.0  T
   2    -23.4780703  0.177417E-05  0.388E-02    1.21       1.0  T
   3    -23.4780623  0.799982E-05  0.306E-02    1.23       1.0  T
   4    -23.4780774 -0.151329E-04  0.241E-03    1.22      10.4  T
   5    -23.4780774 -0.238474E-07  0.124E-03    1.22      20.2  T
   6    -23.4780774 -0.211411E-08  0.398E-04    1.22      62.8  T
   7    -23.4780774 -0.270987E-09  0.140E-04    1.22     178.8  T
     SCC iter.                  ...        0 min,  0.004 sec
     gradient                   ...        0 min,  0.001 sec
 * total energy  :   -23.2426729 Eh     change       -0.1189959E-03 Eh
   gradient norm :     0.0095333 Eh/α   predicted    -0.1486727E-03 (  24.94%)
   displ. norm   :     0.0384346 α      lambda       -0.5282788E-04
   maximum displ.:     0.0355710 α      in ANC's #1, #4, #7, ...

........................................................................
.............................. CYCLE   49 ..............................
........................................................................

 iter      E             dE          RMSdq      gap      omega  full diag
   1    -23.4781908 -0.234782E+02  0.287E-02    1.21       0.0  T
   2    -23.4781905  0.300769E-06  0.190E-02    1.21       1.3  T
   3    -23.4781871  0.335549E-05  0.169E-02    1.22       1.5  T
   4    -23.4781919 -0.475665E-05  0.144E-03    1.21      17.3  T
   5    -23.4781919 -0.203475E-07  0.485E-04    1.21      51.6  T
   6    -23.4781919 -0.167930E-09  0.159E-04    1.21     157.7  T
     SCC iter.                  ...        0 min,  0.003 sec
     gradient                   ...        0 min,  0.001 sec
 * total energy  :   -23.2427214 Eh     change       -0.4849974E-04 Eh
   gradient norm :     0.0086205 Eh/α   predicted    -0.2645091E-04 ( -45.46%)
   displ. norm   :     0.1979324 α      lambda       -0.2335702E-03
   maximum displ.:     0.1832876 α      in ANC's #1, #4, #2, ...

........................................................................
.............................. CYCLE   50 ..............................
........................................................................

 iter      E             dE          RMSdq      gap      omega  full diag
   1    -23.4771377 -0.234771E+02  0.146E-01    1.16       0.0  T
   2    -23.4771396 -0.194571E-05  0.925E-02    1.15       1.0  T
   3    -23.4770672  0.724431E-04  0.601E-02    1.18       1.0  T
   4    -23.4771458 -0.786145E-04  0.627E-03    1.15       4.0  T
   5    -23.4771462 -0.459892E-06  0.250E-03    1.15      10.0  T
   6    -23.4771463 -0.291437E-08  0.503E-04    1.15      49.7  T
   7    -23.4771463 -0.809379E-09  0.217E-04    1.15     114.9  T
     SCC iter.                  ...        0 min,  0.004 sec
     gradient                   ...        0 min,  0.001 sec
 * total energy  :   -23.2427410 Eh     change       -0.1960352E-04 Eh
   gradient norm :     0.0443177 Eh/α   predicted    -0.1213681E-03 ( 519.11%)
   displ. norm   :     0.0875964 α      lambda       -0.3296346E-03
   maximum displ.:     0.0833685 α      in ANC's #1, #3, #2, ...

........................................................................
.............................. CYCLE   51 ..............................
........................................................................

 iter      E             dE          RMSdq      gap      omega  full diag
   1    -23.4786230 -0.234786E+02  0.699E-02    1.20       0.0  T
   2    -23.4786217  0.129942E-05  0.475E-02    1.18       1.0  T
   3    -23.4785962  0.254735E-04  0.408E-02    1.21       1.0  T
   4    -23.4786286 -0.323618E-04  0.277E-03    1.19       9.0  T
   5    -23.4786286 -0.260209E-07  0.146E-03    1.19      17.1  T
   6    -23.4786286 -0.221900E-08  0.429E-04    1.19      58.2  T
   7    -23.4786286 -0.343988E-09  0.152E-04    1.19     164.7  T
     SCC iter.                  ...        0 min,  0.004 sec
     gradient                   ...        0 min,  0.001 sec
 * total energy  :   -23.2428371 Eh     change       -0.9610907E-04 Eh
   gradient norm :     0.0016124 Eh/α   predicted    -0.1660825E-03 (  72.81%)
   displ. norm   :     0.0701345 α      lambda       -0.4128465E-04
   maximum displ.:     0.0633140 α      in ANC's #1, #4, #2, ...

........................................................................
.............................. CYCLE   52 ..............................
........................................................................

 iter      E             dE          RMSdq      gap      omega  full diag
   1    -23.4784668 -0.234785E+02  0.523E-02    1.17       0.0  T
   2    -23.4784667  0.136041E-06  0.335E-02    1.17       1.0  T
   3    -23.4784525  0.141467E-04  0.281E-02    1.18       1.0  T
   4    -23.4784685 -0.159846E-04  0.214E-03    1.17      11.7  T
   5    -23.4784686 -0.467939E-07  0.862E-04    1.17      29.0  T
   6    -23.4784686 -0.343803E-09  0.193E-04    1.17     129.3  T
     SCC iter.                  ...        0 min,  0.004 sec
     gradient                   ...        0 min,  0.001 sec
 * total energy  :   -23.2428884 Eh     change       -0.5129235E-04 Eh
   gradient norm :     0.0063488 Eh/α   predicted    -0.2068735E-04 ( -59.67%)
   displ. norm   :     0.0978666 α      lambda       -0.6311082E-04
   maximum displ.:     0.0864107 α      in ANC's #1, #4, #36, ...

........................................................................
.............................. CYCLE   53 ..............................
........................................................................

 iter      E             dE          RMSdq      gap      omega  full diag
   1    -23.4780488 -0.234780E+02  0.736E-02    1.15       0.0  T
   2    -23.4780487  0.115049E-06  0.469E-02    1.14       1.0  T
   3    -23.4780215  0.271821E-04  0.379E-02    1.16       1.0  T
   4    -23.4780516 -0.301212E-04  0.286E-03    1.14       8.8  T
   5    -23.4780517 -0.768794E-07  0.123E-03    1.14      20.3  T
   6    -23.4780517 -0.748159E-09  0.265E-04    1.14      94.5  T
   7    -23.4780517 -0.150308E-09  0.942E-05    1.14     265.3  T
     SCC iter.                  ...        0 min,  0.004 sec
     gradient                   ...        0 min,  0.001 sec
 * total energy  :   -23.2429138 Eh     change       -0.2535379E-04 Eh
   gradient norm :     0.0193207 Eh/α   predicted    -0.3185930E-04 (  25.66%)
   displ. norm   :     0.0133129 α      lambda       -0.3504266E-04
   maximum displ.:     0.0121224 α      in ANC's #1, #9, #3, ...

........................................................................
.............................. CYCLE   54 ..............................
........................................................................

 iter      E             dE          RMSdq      gap      omega  full diag
   1    -23.4784901 -0.234785E+02  0.118E-02    1.15       0.0  T
   2    -23.4784898  0.291763E-06  0.946E-03    1.15       2.6  T
   3    -23.4784903 -0.510259E-06  0.606E-03    1.15       4.1  T
   4    -23.4784907 -0.352842E-06  0.743E-04    1.15      33.7  T
   5    -23.4784907 -0.143303E-08  0.324E-04    1.15      77.1  T
     SCC iter.                  ...        0 min,  0.003 sec
     gradient                   ...        0 min,  0.001 sec
 * total energy  :   -23.2429364 Eh     change       -0.2260943E-04 Eh
   gradient norm :     0.0078657 Eh/α   predicted    -0.1752482E-04 ( -22.49%)
   displ. norm   :     0.0391554 α      lambda       -0.2786946E-04
   maximum displ.:     0.0297662 α      in ANC's #1, #4, #36, ...

........................................................................
.............................. CYCLE   55 ..............................
........................................................................

 iter      E             dE          RMSdq      gap      omega  full diag
   1    -23.4786642 -0.234787E+02  0.313E-02    1.15       0.0  T
   2    -23.4786629  0.137742E-05  0.224E-02    1.14       1.1  T
   3    -23.4786628  0.463686E-07  0.178E-02    1.15       1.4  T
   4    -23.4786668 -0.398826E-05  0.150E-03    1.14      16.7  T
   5    -23.4786668 -0.140880E-07  0.588E-04    1.14      42.5  T
   6    -23.4786668 -0.329042E-09  0.206E-04    1.14     121.5  T
     SCC iter.                  ...        0 min,  0.004 sec
     gradient                   ...        0 min,  0.001 sec
 * total energy  :   -23.2429570 Eh     change       -0.2067913E-04 Eh
   gradient norm :     0.0014758 Eh/α   predicted    -0.1395683E-04 ( -32.51%)
   displ. norm   :     0.1065860 α      lambda       -0.2568071E-04
   maximum displ.:     0.0871730 α      in ANC's #1, #4, #36, ...

........................................................................
.............................. CYCLE   56 ..............................
........................................................................

 iter      E             dE          RMSdq      gap      omega  full diag
   1    -23.4785269 -0.234785E+02  0.839E-02    1.12       0.0  T
   2    -23.4785268  0.163563E-06  0.533E-02    1.11       1.0  T
   3    -23.4784921  0.346275E-04  0.437E-02    1.13       1.0  T
   4    -23.4785309 -0.387310E-04  0.419E-03    1.11       6.0  T
   5    -23.4785311 -0.208530E-06  0.156E-03    1.11      16.0  T
   6    -23.4785311 -0.126507E-08  0.316E-04    1.11      79.0  T
   7    -23.4785311 -0.469900E-09  0.987E-05    1.11     253.2  T
     SCC iter.                  ...        0 min,  0.004 sec
     gradient                   ...        0 min,  0.001 sec
 * total energy  :   -23.2429641 Eh     change       -0.7015020E-05 Eh
   gradient norm :     0.0137069 Eh/α   predicted    -0.1290403E-04 (  83.95%)
   displ. norm   :     0.0175129 α      lambda       -0.2403144E-04
   maximum displ.:     0.0149216 α      in ANC's #1, #3, #2, ...

........................................................................
.............................. CYCLE   57 ..............................
........................................................................

 iter      E             dE          RMSdq      gap      omega  full diag
   1    -23.4785569 -0.234786E+02  0.139E-02    1.13       0.0  T
   2    -23.4785563  0.593032E-06  0.111E-02    1.12       2.2  T
   3    -23.4785576 -0.125869E-05  0.710E-03    1.12       3.5  T
   4    -23.4785580 -0.418103E-06  0.977E-04    1.12      25.6  T
   5    -23.4785580 -0.530779E-08  0.289E-04    1.12      86.6  T
     SCC iter.                  ...        0 min,  0.003 sec
     gradient                   ...        0 min,  0.001 sec
[...]
   gradient norm :     0.0010658 Eh/α   predicted    -0.1916824E-05 (  -6.54%)
   displ. norm   :     0.0040675 α      lambda       -0.6655159E-06
   maximum displ.:     0.0023294 α      in ANC's #1, #6, #4, ...

........................................................................
.............................. CYCLE   60 ..............................
........................................................................

 iter      E             dE          RMSdq      gap      omega  full diag
   1    -23.4787499 -0.234787E+02  0.458E-03    1.12       0.0  T
   2    -23.4787499 -0.830646E-09  0.277E-03    1.12       9.0  T
   3    -23.4787498  0.873968E-07  0.233E-03    1.12      10.7  T
   4    -23.4787499 -0.103801E-06  0.401E-04    1.12      62.4  T
   5    -23.4787499 -0.206087E-08  0.111E-04    1.12     225.2  T
     SCC iter.                  ...        0 min,  0.003 sec
     gradient                   ...        0 min,  0.001 sec
 * total energy  :   -23.2429780 Eh     change       -0.6217826E-06 Eh
   gradient norm :     0.0001822 Eh/α   predicted    -0.3325065E-06 ( -46.52%)
   displ. norm   :     0.0054873 α      lambda       -0.1446232E-06
   maximum displ.:     0.0039368 α      in ANC's #1, #4, #6, ...

   *** GEOMETRY OPTIMIZATION CONVERGED AFTER 60 ITERATIONS ***

------------------------------------------------------------------------
 total energy gain   :        -0.3653808 Eh     -229.2799 kcal/mol
 total RMSD          :         0.8284843 a0        0.4384 Å
 total power (kW/mol):       -15.9884508 (step)-2723.6526 (real)
------------------------------------------------------------------------

 ANCopt (total)                0 d,  0 h,  0 min,  0.352 sec
 optimizer setup                ...        0 min,  0.000 sec (  0.028%)
 model hessian                  ...        0 min,  0.016 sec (  4.588%)
 ANC generation                 ...        0 min,  0.001 sec (  0.311%)
 coordinate transformation      ...        0 min,  0.000 sec (  0.083%)
 single point calculation       ...        0 min,  0.317 sec ( 90.010%)
 optimization log               ...        0 min,  0.005 sec (  1.496%)
 hessian update                 ...        0 min,  0.001 sec (  0.203%)
 rational function              ...        0 min,  0.007 sec (  2.114%)

================
 final structure:
================
16
 xtb: 6.6.1 (8d0f1dd)
O            2.70863903885007       -0.23923748420802        0.77126474254188
O            1.04599313967165       -0.55250848257460        0.77844797478154
C            0.59188607569002       -0.45762491384740       -0.53735990501826
C           -0.71652756436670       -1.23455820823570       -0.36343328190442
C           -1.27166096557010       -0.30150085851098        0.65011019340017
C           -0.99625665037065        1.10561797462470        0.27057924969024
C            0.11340324622726        0.97680442862591       -0.78999840001836
H            2.86215276432924       -0.40099421046267        1.70489991628579
H            1.32095176181643       -0.84584960336200       -1.25188484376209
H           -0.55481428397490       -2.24249407767338        0.01228725053220
H           -1.30480910316583       -1.27940196241905       -1.28936318730492
H           -1.88865908763011       -0.58942035347434        1.47960710778572
H           -0.67008397139798        1.69093792432404        1.13356466500177
H           -1.89014438175478        1.60155678102270       -0.12766531945383
H            0.92141361826326        1.68815974321241       -0.63726274542959
H           -0.27121363661676        1.08069330295879       -1.80381341712788

 Bond Distances (Angstroems)
 ---------------------------
O1-H8=0.9599         O2-C3=1.3952         C3-O2=1.3952         C3-C4=1.5316         C3-C7=1.5331         C3-H9=1.0922         
C4-C3=1.5316         C4-C5=1.4853         C4-H10=1.0878        C4-H11=1.0979        C5-C4=1.4853         C5-C6=1.4832         
C5-H12=1.0731        C6-C5=1.4832         C6-C7=1.5404         C6-H13=1.0926        C6-H14=1.0971        C7-C3=1.5331         
C7-C6=1.5404         C7-H15=1.0873        C7-H16=1.0893        H8-O1=0.9599         H9-C3=1.0922         H10-C4=1.0878        
H11-C4=1.0979        H12-C5=1.0731        H13-C6=1.0926        H14-C6=1.0971        H15-C7=1.0873        H16-C7=1.0893        
 C  H  Rav=1.0897 sigma=0.0072  Rmin=1.0731  Rmax=1.0979     8
 C  C  Rav=1.5147 sigma=0.0251  Rmin=1.4832  Rmax=1.5404     5
 O  H  Rav=0.9599 sigma=0.0000  Rmin=0.9599  Rmax=0.9599     1
 O  C  Rav=1.3952 sigma=0.0000  Rmin=1.3952  Rmax=1.3952     1

 selected bond angles (degree)
 --------------------
C4-C3-O2= 97.84                C7-C3-O2=108.70                C7-C3-C4=103.10                H9-C3-O2=112.06                
H9-C3-C4=117.66                H9-C3-C7=115.67                C5-C4-C3= 94.48                H10-C4-C3=112.47               
H10-C4-C5=113.70               H11-C4-C3=112.50               H11-C4-C5=113.63               H11-C4-H10=109.46              
C6-C5-C4=110.61                H12-C5-C4=125.02               H12-C5-C6=123.99               C7-C6-C5=103.33                
H13-C6-C5=111.20               H13-C6-C7=111.94               H14-C6-C5=111.74               H14-C6-C7=112.01               
H14-C6-H13=106.73              C6-C7-C3=100.93                H15-C7-C3=110.92               H15-C7-C6=112.58               
H16-C7-C3=110.66               H16-C7-C6=112.24               H16-C7-H15=109.31              

 selected dihedral angles (degree)
 ---------------------------------
C5-C4-C3-O2= 60.26            C5-C4-C3-C7=308.90            C5-C4-C3-H9=180.28            H10-C4-C3-O2=302.31           
H10-C4-C3-C7=190.94           H10-C4-C3-H9= 62.33           H11-C4-C3-O2=178.15           H11-C4-C3-C7= 66.78           
H11-C4-C3-H9=298.17           C6-C5-C4-C3= 41.73            C6-C5-C4-H10=158.67           C6-C5-C4-H11=284.77           
H12-C5-C4-C3=214.83           H12-C5-C4-H10=331.78          H12-C5-C4-H11= 97.88          C7-C6-C5-C4=343.39            
C7-C6-C5-H12=170.20           H13-C6-C5-C4=223.15           H13-C6-C5-H12= 49.96          H14-C6-C5-C4=104.01           
H14-C6-C5-H12=290.82          C6-C7-C3-O2=300.35            C6-C7-C3-C4= 43.46            C6-C7-C3-H9=173.30            
H15-C7-C3-O2= 59.85           H15-C7-C3-C4=162.96           H15-C7-C3-H9=292.80           H16-C7-C3-O2=181.36           
H16-C7-C3-C4=284.46           H16-C7-C3-H9= 54.30           C3-C7-C6-C5=343.40            C3-C7-C6-H13=103.14           
C3-C7-C6-H14=222.97           H15-C7-C6-C5=225.10           H15-C7-C6-H13=344.84          H15-C7-C6-H14=104.67          
H16-C7-C6-C5=101.26           H16-C7-C6-H13=220.99          H16-C7-C6-H14=340.83          
           -------------------------------------------------
          |                Final Singlepoint                |
           -------------------------------------------------

          ...................................................
          :                      SETUP                      :
          :.................................................:
          :  # basis functions                  37          :
          :  # atomic orbitals                  37          :
          :  # shells                           23          :
          :  # electrons                        41          :
          :  max. iterations                   250          :
          :  Hamiltonian                  GFN2-xTB          :
          :  restarted?                      false          :
          :  GBSA solvation                  false          :
          :  PC potential                    false          :
          :  electronic temp.          300.0000000     K    :
          :  accuracy                    1.0000000          :
          :  -> integral cutoff          0.2500000E+02      :
          :  -> integral neglect         0.1000000E-07      :
          :  -> SCF convergence          0.1000000E-05 Eh   :
          :  -> wf. convergence          0.1000000E-03 e    :
          :  Broyden damping             0.4000000          :
          ...................................................

 iter      E             dE          RMSdq      gap      omega  full diag
   1    -23.4787499 -0.234787E+02  0.311E-05    1.12       0.0  T
   2    -23.4787499 -0.186873E-11  0.191E-05    1.12    1307.1  T
   3    -23.4787499  0.159162E-11  0.154E-05    1.12    1623.9  T

   *** convergence criteria satisfied after 3 iterations ***

         #    Occupation            Energy/Eh            Energy/eV
      -------------------------------------------------------------
         1        2.0000           -0.6901862             -18.7809
       ...           ...                  ...                  ...
        15        2.0000           -0.4649067             -12.6508
        16        2.0000           -0.4575452             -12.4504
        17        2.0000           -0.4546770             -12.3724
        18        2.0000           -0.4472074             -12.1691
        19        2.0000           -0.4409275             -11.9982
        20        2.0000           -0.4058668             -11.0442
        21        1.0000           -0.3159807              -8.5983 (HOMO)
        22                         -0.2748920              -7.4802 (LUMO)
        23                          0.0501573               1.3648
        24                          0.0688754               1.8742
        25                          0.0766783               2.0865
        26                          0.0998417               2.7168
       ...                                ...                  ...
        37                          0.3803501              10.3499
      -------------------------------------------------------------
                  HL-Gap            0.0410886 Eh            1.1181 eV
             Fermi-level           -0.3281801 Eh           -8.9302 eV

 SCC (total)                   0 d,  0 h,  0 min,  0.004 sec
 SCC setup                      ...        0 min,  0.000 sec (  2.101%)
 Dispersion                     ...        0 min,  0.000 sec (  1.639%)
 classical contributions        ...        0 min,  0.000 sec (  0.335%)
 integral evaluation            ...        0 min,  0.000 sec (  8.350%)
 iterations                     ...        0 min,  0.002 sec ( 58.266%)
 molecular gradient             ...        0 min,  0.001 sec ( 24.475%)
 printout                       ...        0 min,  0.000 sec (  4.285%)

         :::::::::::::::::::::::::::::::::::::::::::::::::::::
         ::                     SUMMARY                     ::
         :::::::::::::::::::::::::::::::::::::::::::::::::::::
         :: total energy             -23.242978008786 Eh    ::
         :: gradient norm              0.000183554101 Eh/a0 ::
         :: HOMO-LUMO gap              1.118079056438 eV    ::
         ::.................................................::
         :: SCC energy               -23.478749912310 Eh    ::
         :: -> isotropic ES            0.038099963845 Eh    ::
         :: -> anisotropic ES         -0.004508052202 Eh    ::
         :: -> anisotropic XC          0.004754249025 Eh    ::
         :: -> dispersion             -0.009864874775 Eh    ::
         :: repulsion energy           0.235298567383 Eh    ::
         :: add. restraining           0.000444665126 Eh    ::
         :: total charge               0.000000000000 e     ::
         :::::::::::::::::::::::::::::::::::::::::::::::::::::

           -------------------------------------------------
          |                Property Printout                |
           -------------------------------------------------

    * Orbital Energies and Occupations

         #    Occupation            Energy/Eh            Energy/eV
      -------------------------------------------------------------
         1        2.0000           -0.6901862             -18.7809
       ...           ...                  ...                  ...
         9        2.0000           -0.5420524             -14.7500
        10        2.0000           -0.5340347             -14.5318
        11        2.0000           -0.5203147             -14.1585
        12        2.0000           -0.5031736             -13.6920
        13        2.0000           -0.4941158             -13.4456
        14        2.0000           -0.4765213             -12.9668
        15        2.0000           -0.4649067             -12.6508
        16        2.0000           -0.4575452             -12.4504
        17        2.0000           -0.4546770             -12.3724
        18        2.0000           -0.4472074             -12.1691
        19        2.0000           -0.4409275             -11.9982
        20        2.0000           -0.4058668             -11.0442
        21        1.0000           -0.3159807              -8.5983 (HOMO)
        22                         -0.2748920              -7.4802 (LUMO)
        23                          0.0501573               1.3648
        24                          0.0688754               1.8742
        25                          0.0766783               2.0865
        26                          0.0998417               2.7168
        27                          0.1205013               3.2790
        28                          0.1342151               3.6522
        29                          0.1490998               4.0572
        30                          0.1760931               4.7917
        31                          0.1788751               4.8674
        32                          0.1937535               5.2723
       ...                                ...                  ...
        37                          0.3803501              10.3499
      -------------------------------------------------------------
                  HL-Gap            0.0410886 Eh            1.1181 eV
             Fermi-level           -0.3281801 Eh           -8.9302 eV

     #   Z          covCN         q      C6AA      α(0)
     1   8 O        1.266    -0.400    21.373     6.213
     2   8 O        1.329    -0.248    18.502     5.786
     3   6 C        3.873     0.133    18.387     6.097
     4   6 C        3.841    -0.055    21.523     6.600
     5   6 C        3.032    -0.026    28.619     8.775
     6   6 C        3.833    -0.054    21.510     6.599
     7   6 C        3.839    -0.071    21.820     6.645
     8   1 H        0.805     0.302     0.716     1.329
     9   1 H        0.924     0.044     2.399     2.422
    10   1 H        0.925     0.060     2.193     2.316
    11   1 H        0.923     0.055     2.260     2.351
    12   1 H        0.926     0.045     2.382     2.413
    13   1 H        0.924     0.065     2.138     2.287
    14   1 H        0.924     0.055     2.257     2.350
    15   1 H        0.925     0.057     2.229     2.335
    16   1 H        0.925     0.035     2.515     2.480

 Mol. C6AA /au·bohr⁶  :       2056.908811
 Mol. C8AA /au·bohr⁸  :      44729.277481
 Mol. α(0) /au        :         66.997825


Wiberg/Mayer (AO) data.
largest (>0.10) Wiberg bond orders for each atom

 ---------------------------------------------------------------------------
     #   Z sym  total        # sym  WBO       # sym  WBO       # sym  WBO
 ---------------------------------------------------------------------------
     1   8 O    1.897 --     8 H    0.906     2 O    0.809     5 C    0.111
     2   8 O    2.041 --     3 C    1.006     1 O    0.809     5 C    0.143
     3   6 C    3.948 --     2 O    1.006     7 C    0.985     9 H    0.955
                             4 C    0.946
     4   6 C    3.992 --     5 C    1.059    10 H    0.968     3 C    0.946
                            11 H    0.934
     5   6 C    3.518 --     6 C    1.079     4 C    1.059    12 H    0.975
                             2 O    0.143     1 O    0.111
     6   6 C    3.998 --     5 C    1.079     7 C    0.999    13 H    0.951
                            14 H    0.936
     7   6 C    3.996 --     6 C    0.999     3 C    0.985    16 H    0.980
                            15 H    0.978
     8   1 H    0.909 --     1 O    0.906
     9   1 H    0.998 --     3 C    0.955
    10   1 H    0.996 --     4 C    0.968
    11   1 H    0.994 --     4 C    0.934
    12   1 H    0.998 --     5 C    0.975
    13   1 H    0.995 --     6 C    0.951
    14   1 H    0.995 --     6 C    0.936
    15   1 H    0.997 --     7 C    0.978
    16   1 H    0.999 --     7 C    0.980
 ---------------------------------------------------------------------------

Topologies differ in total number of bonds
Writing topology from bond orders to xtbtopo.mol

molecular dipole:
                 x           y           z       tot (Debye)
 q only:       -0.980       0.116      -0.198
   full:       -0.952       0.065      -0.110       2.441
molecular quadrupole (traceless):
                xx          xy          yy          xz          yz          zz
 q only:       -3.642       0.103       1.261       1.403       0.565       2.381
  q+dip:       -4.599      -0.378       1.255       2.561       0.561       3.344
   full:       -3.809      -0.209       0.597       2.756       0.439       3.212

           -------------------------------------------------
          |                Geometry Summary                 |
           -------------------------------------------------

      molecular mass/u    :      101.1239561
   center of mass at/Å    :        0.3086373      -0.1077181       0.1459512
  moments of inertia/u·Å² :        0.1107577E+03   0.2386042E+03   0.2643501E+03
rotational constants/cm⁻¹ :        0.1522028E+00   0.7065102E-01   0.6377009E-01

 * 13 selected distances

     #   Z          #   Z                                           value/Å
     3   6 C        4   6 C                                       1.5316078
     4   6 C        5   6 C                                       1.4852744
     5   6 C        6   6 C                                       1.4831976
     3   6 C        7   6 C                                       1.5330884
     6   6 C        7   6 C                                       1.5403777 (max)
     3   6 C        9   1 H                                       1.0921544
     4   6 C       10   1 H                                       1.0877739
     4   6 C       11   1 H                                       1.0979219
     5   6 C       12   1 H                                       1.0731494 (min)
     6   6 C       13   1 H                                       1.0925805
     6   6 C       14   1 H                                       1.0970823
     7   6 C       15   1 H                                       1.0873066
     7   6 C       16   1 H                                       1.0892861

 * 2 distinct bonds (by element types)

   Z      Z             #   av. dist./Å        max./Å        min./Å
   1 H    6 C           8     1.0896569     1.0979219     1.0731494
   6 C    6 C           5     1.5147092     1.5403777     1.4831976


optimized geometry written to: xtbopt.xyz


           -------------------------------------------------
          | TOTAL ENERGY              -23.242978008786 Eh   |
          | GRADIENT NORM               0.000183554101 Eh/α |
          | HOMO-LUMO GAP               1.118079056438 eV   |
           -------------------------------------------------

------------------------------------------------------------------------
 * finished run on 2025/05/23 at 13:10:40.245     
------------------------------------------------------------------------
 total:
 * wall-time:     0 d,  0 h,  0 min,  0.373 sec
 *  cpu-time:     0 d,  0 h,  0 min,  5.570 sec
 * ratio c/w:    14.951 speedup
 SCF:
 * wall-time:     0 d,  0 h,  0 min,  0.009 sec
 *  cpu-time:     0 d,  0 h,  0 min,  0.136 sec
 * ratio c/w:    14.375 speedup
 ANC optimizer:
 * wall-time:     0 d,  0 h,  0 min,  0.357 sec
 *  cpu-time:     0 d,  0 h,  0 min,  5.343 sec
 * ratio c/w:    14.980 speedup

