      -----------------------------------------------------------      
     |                   =====================                   |     
     |                           x T B                           |     
     |                   =====================                   |     
     |                         S. Grimme                         |     
     |          Mulliken Center for Theoretical Chemistry        |     
     |                    University of Bonn                     |     
      -----------------------------------------------------------      

   * xtb version 6.6.1 (8d0f1dd) compiled by 'conda@1efc2f54142f' on 2023-08-01

   xtb is free software: you can redistribute it and/or modify it under
   the terms of the GNU Lesser General Public License as published by
   the Free Software Foundation, either version 3 of the License, or
   (at your option) any later version.
   
   xtb is distributed in the hope that it will be useful,
   but WITHOUT ANY WARRANTY; without even the implied warranty of
   MERCHANTABILITY or FITNESS FOR A PARTICULAR PURPOSE.  See the
   GNU Lesser General Public License for more details.
   
   Cite this work as:
   * C. Bannwarth, E. Caldeweyher, S. Ehlert, A. Hansen, P. Pracht,
     J. Seibert, S. Spicher, S. Grimme, WIREs Comput. Mol. Sci., 2020, 11,
     e01493. DOI: 10.1002/wcms.1493
   
   for GFN2-xTB:
   * C. Bannwarth, S. Ehlert and S. Grimme., J. Chem. Theory Comput., 2019,
     15, 1652-1671. DOI: 10.1021/acs.jctc.8b01176
   for GFN1-xTB:
   * S. Grimme, C. Bannwarth, P. Shushkov, J. Chem. Theory Comput., 2017,
     13, 1989-2009. DOI: 10.1021/acs.jctc.7b00118
   for GFN0-xTB:
   * P. Pracht, E. Caldeweyher, S. Ehlert, S. Grimme, ChemRxiv, 2019, preprint.
     DOI: 10.26434/chemrxiv.8326202.v1
   for GFN-FF:
   * S. Spicher and S. Grimme, Angew. Chem. Int. Ed., 2020, 59, 15665-15673.
     DOI: 10.1002/anie.202004239
   
   for ALPB and GBSA implicit solvation:
   * S. Ehlert, M. Stahn, S. Spicher, S. Grimme, J. Chem. Theory Comput.,
     2021, 17, 4250-4261. DOI: 10.1021/acs.jctc.1c00471
   
   for DFT-D4:
   * E. Caldeweyher, C. Bannwarth and S. Grimme, J. Chem. Phys., 2017,
     147, 034112. DOI: 10.1063/1.4993215
   * E. Caldeweyher, S. Ehlert, A. Hansen, H. Neugebauer, S. Spicher,
     C. Bannwarth and S. Grimme, J. Chem. Phys., 2019, 150, 154122.
     DOI: 10.1063/1.5090222
   * E. Caldeweyher, J.-M. Mewes, S. Ehlert and S. Grimme, Phys. Chem. Chem. Phys.
     2020, 22, 8499-8512. DOI: 10.1039/D0CP00502A
   
   for sTDA-xTB:
   * S. Grimme and C. Bannwarth, J. Chem. Phys., 2016, 145, 054103.
     DOI: 10.1063/1.4959605
   
   in the mass-spec context:
   * V. Asgeirsson, C. Bauer and S. Grimme, Chem. Sci., 2017, 8, 4879.
     DOI: 10.1039/c7sc00601b
   * J. Koopman and S. Grimme, ACS Omega 2019, 4, 12, 15120-15133.
     DOI: 10.1021/acsomega.9b02011
   
   for metadynamics refer to:
   * S. Grimme, J. Chem. Theory Comput., 2019, 155, 2847-2862
     DOI: 10.1021/acs.jctc.9b00143
   
   for SPH calculations refer to:
   * S. Spicher and S. Grimme, J. Chem. Theory Comput., 2021, 17, 1701-1714
     DOI: 10.1021/acs.jctc.0c01306
   
   with help from (in alphabetical order)
   P. Atkinson, C. Bannwarth, F. Bohle, G. Brandenburg, E. Caldeweyher
   M. Checinski, S. Dohm, S. Ehlert, S. Ehrlich, I. Gerasimov, C. Hölzer
   A. Katbashev, J. Koopman, C. Lavigne, S. Lehtola, F. März, M. Müller,
   F. Musil, H. Neugebauer, J. Pisarek, C. Plett, P. Pracht, F. Pultar,
   J. Seibert, P. Shushkov, S. Spicher, M. Stahn, M. Steiner, T. Strunk,
   J. Stückrath, T. Rose, and J. Unsleber
   
 * started run on 2025/05/23 at 13:10:39.022     

           -------------------------------------------------
          |                Calculation Setup                |
           -------------------------------------------------

          program call               : /gpfs/fs1/home/copan/code/autode-practice/.pixi/envs/default/bin/xtb path_opt0_xtb.xyz --chrg 0 --uhf 1 --opt --input xcontrol_path_opt0_xtb
          hostname                   : csed-0021
          coordinate file            : path_opt0_xtb.xyz
          omp threads                :                     8

   ID    Z sym.   atoms
    1    8 O      1, 2
    2    6 C      3-7
    3    1 H      8-16
constraining bond 2 5 to    2.8368000 Å, actual value:    3.0371114 Å
constraining bond 1 2 to    1.6159000 Å, actual value:    1.4164187 Å

           -------------------------------------------------
          |                 G F N 2 - x T B                 |
           -------------------------------------------------

        Reference                      10.1021/acs.jctc.8b01176
      * Hamiltonian:
        H0-scaling (s, p, d)           1.850000    2.230000    2.230000
        zeta-weighting                 0.500000
      * Dispersion:
        s8                             2.700000
        a1                             0.520000
        a2                             5.000000
        s9                             5.000000
      * Repulsion:
        kExp                           1.500000    1.000000
        rExp                           1.000000
      * Coulomb:
        alpha                          2.000000
        third order                    shell-resolved
        anisotropic                    true
        a3                             3.000000
        a5                             4.000000
        cn-shift                       1.200000
        cn-exp                         4.000000
        max-rad                        5.000000


          ...................................................
          :                      SETUP                      :
          :.................................................:
          :  # basis functions                  37          :
          :  # atomic orbitals                  37          :
          :  # shells                           23          :
          :  # electrons                        41          :
          :  max. iterations                   250          :
          :  Hamiltonian                  GFN2-xTB          :
          :  restarted?                      false          :
          :  GBSA solvation                  false          :
          :  PC potential                    false          :
          :  electronic temp.          300.0000000     K    :
          :  accuracy                    1.0000000          :
          :  -> integral cutoff          0.2500000E+02      :
          :  -> integral neglect         0.1000000E-07      :
          :  -> SCF convergence          0.1000000E-05 Eh   :
          :  -> wf. convergence          0.1000000E-03 e    :
          :  Broyden damping             0.4000000          :
          ...................................................

 iter      E             dE          RMSdq      gap      omega  full diag
   1    -23.4881158 -0.234881E+02  0.340E+00    4.78       0.0  T
   2    -23.5087365 -0.206207E-01  0.198E+00    4.68       1.0  T
   3    -23.5093660 -0.629506E-03  0.635E-01    4.30       1.0  T
   4    -23.5098036 -0.437621E-03  0.119E-01    4.07       1.0  T
   5    -23.5098573 -0.536655E-04  0.604E-02    4.11       1.0  T
   6    -23.5098603 -0.298000E-05  0.146E-02    4.15       1.7  T
   7    -23.5098607 -0.402421E-06  0.613E-03    4.15       4.1  T
   8    -23.5098607 -0.467754E-07  0.174E-03    4.15      14.3  T
   9    -23.5098607 -0.246998E-08  0.407E-04    4.15      61.5  T
  10    -23.5098607 -0.361332E-09  0.126E-04    4.15     199.0  T

   *** convergence criteria satisfied after 10 iterations ***

         #    Occupation            Energy/Eh            Energy/eV
      -------------------------------------------------------------
         1        2.0000           -0.7163371             -19.4925
       ...           ...                  ...                  ...
        15        2.0000           -0.4574620             -12.4482
        16        2.0000           -0.4506072             -12.2616
        17        2.0000           -0.4462246             -12.1424
        18        2.0000           -0.4442744             -12.0893
        19        2.0000           -0.4411669             -12.0048
        20        2.0000           -0.4062674             -11.0551
        21        1.0000           -0.2883752              -7.8471 (HOMO)
        22                         -0.1359762              -3.7001 (LUMO)
        23                          0.0548707               1.4931
        24                          0.0716186               1.9488
        25                          0.1013868               2.7589
        26                          0.1086973               2.9578
       ...                                ...                  ...
        37                          0.3969953              10.8028
      -------------------------------------------------------------
                  HL-Gap            0.1523990 Eh            4.1470 eV
             Fermi-level           -0.2797485 Eh           -7.6123 eV

 SCC (total)                   0 d,  0 h,  0 min,  0.009 sec
 SCC setup                      ...        0 min,  0.000 sec (  1.913%)
 Dispersion                     ...        0 min,  0.000 sec (  1.410%)
 classical contributions        ...        0 min,  0.000 sec (  1.794%)
 integral evaluation            ...        0 min,  0.000 sec (  5.272%)
 iterations                     ...        0 min,  0.007 sec ( 75.705%)
 molecular gradient             ...        0 min,  0.001 sec ( 11.287%)
 printout                       ...        0 min,  0.000 sec (  2.242%)

         :::::::::::::::::::::::::::::::::::::::::::::::::::::
         ::                     SUMMARY                     ::
         :::::::::::::::::::::::::::::::::::::::::::::::::::::
         :: total energy             -22.705458114403 Eh    ::
         :: gradient norm              3.332424218385 Eh/a0 ::
         :: HOMO-LUMO gap              4.146986662424 eV    ::
         ::.................................................::
         :: SCC energy               -23.509860733598 Eh    ::
         :: -> isotropic ES            0.030013084262 Eh    ::
         :: -> anisotropic ES         -0.003400904905 Eh    ::
         :: -> anisotropic XC         -0.000606689594 Eh    ::
         :: -> dispersion             -0.009861754567 Eh    ::
         :: repulsion energy           0.233596727497 Eh    ::
         :: add. restraining           0.570780533321 Eh    ::
         :: total charge              -0.000000000000 e     ::
         :::::::::::::::::::::::::::::::::::::::::::::::::::::

      ----------------------------------------------------------- 
     |                   =====================                   |
     |                        A N C O P T                        |
     |                   =====================                   |
     |               Approximate Normal Coordinate               |
     |                Rational Function Optimizer                |
      ----------------------------------------------------------- 

          ...................................................
          :                      SETUP                      :
          :.................................................:
          :   optimization level            normal          :
          :   max. optcycles                   200          :
          :   ANC micro-cycles                  20          :
          :   degrees of freedom                42          :
          :.................................................:
          :   RF solver                   davidson          :
          :   write xtbopt.log                true          :
          :   linear?                        false          :
          :   energy convergence         0.5000000E-05 Eh   :
          :   grad. convergence          0.1000000E-02 Eh/α :
          :   maxmium RF displ.          1.0000000          :
          :   Hlow (freq-cutoff)         0.1000000E-01      :
          :   Hmax (freq-cutoff)         5.0000000          :
          :   S6 in model hess.         20.0000000          :
          ...................................................

generating ANC from model Hessian ...
Using Lindh-Hessian (1995)
 Shifting diagonal of input Hessian by   0.85795159752291195     
 Lowest  eigenvalues of input Hessian
    0.010000    0.381250    0.000000    0.000000    0.000000    0.000000
    0.000000    0.000000    0.866938    0.872634    0.877916    0.897626
    0.904828    0.907471    0.908422    0.911945    0.913960    0.916038
 Highest eigenvalues
    2.091196    2.097923    2.266191    2.406917    7.808128   11.578008


........................................................................
.............................. CYCLE    1 ..............................
........................................................................

 iter      E             dE          RMSdq      gap      omega  full diag
   1    -23.5098607 -0.235099E+02  0.609E-05    4.15       0.0  T
   2    -23.5098607 -0.623146E-11  0.392E-05    4.15     637.6  T
   3    -23.5098607 -0.493827E-11  0.132E-05    4.15    1895.1  T
     SCC iter.                  ...        0 min,  0.002 sec
     gradient                   ...        0 min,  0.001 sec
 * total energy  :   -22.7054581 Eh     change       -0.5001510E-10 Eh
   gradient norm :     3.3324242 Eh/α   predicted     0.0000000E+00 (-100.00%)
   displ. norm   :     0.5035479 α      lambda       -0.1671819E+01
   maximum displ.:     0.4943520 α      in ANC's #41, #42, #2, ...

........................................................................
.............................. CYCLE    2 ..............................
........................................................................

 iter      E             dE          RMSdq      gap      omega  full diag
   1    -23.2089717 -0.232090E+02  0.341E+00    0.91       0.0  T
   2    -22.7808908  0.428081E+00  0.591E+00    3.62       1.0  T
   3    -23.4692297 -0.688339E+00  0.112E+00    1.39       1.0  T
   4    -23.4779339 -0.870423E-02  0.779E-01    0.99       1.0  T
   5    -23.4807933 -0.285934E-02  0.563E-01    0.69       1.0  T
   6    -23.4818359 -0.104259E-02  0.350E-01    0.20       1.0  T
   7    -23.4842366 -0.240076E-02  0.168E-01    0.33       1.0  T
   8    -23.4846594 -0.422741E-03  0.732E-02    0.29       1.0  T
   9    -23.4847613 -0.101896E-03  0.119E-02    0.27       2.1  T
  10    -23.4847612  0.264891E-07  0.680E-03    0.27       3.7  T
  11    -23.4847621 -0.909931E-06  0.127E-03    0.27      19.7  T
  12    -23.4847621  0.874693E-08  0.119E-03    0.27      21.1  T
  13    -23.4847622 -0.209210E-07  0.565E-04    0.27      44.2  T
  14    -23.4847622 -0.467808E-08  0.200E-04    0.27     125.0  T
     SCC iter.                  ...        0 min,  0.007 sec
     gradient                   ...        0 min,  0.001 sec
 * total energy  :   -23.1054731 Eh     change       -0.4000149E+00 Eh
   gradient norm :     1.7256149 Eh/α   predicted    -0.1047863E+01 ( 161.96%)
   displ. norm   :     0.1861084 α      lambda       -0.2920575E+00
   maximum displ.:     0.1605523 α      in ANC's #41, #2, #42, ...

........................................................................
.............................. CYCLE    3 ..............................
........................................................................

 iter      E             dE          RMSdq      gap      omega  full diag
   1    -23.4919017 -0.234919E+02  0.467E-01    1.46       0.0  T
   2    -23.4944419 -0.254015E-02  0.245E-01    0.79       1.0  T
   3    -23.4945958 -0.153898E-03  0.144E-01    0.74       1.0  T
   4    -23.4946173 -0.214840E-04  0.470E-02    0.64       1.0  T
   5    -23.4946218 -0.450994E-05  0.161E-02    0.66       1.6  T
   6    -23.4946223 -0.503679E-06  0.537E-03    0.66       4.7  T
   7    -23.4946223 -0.659686E-07  0.243E-03    0.66      10.3  T
   8    -23.4946224 -0.233426E-07  0.102E-03    0.66      24.5  T
   9    -23.4946224 -0.574375E-08  0.501E-04    0.66      49.9  T
  10    -23.4946224 -0.176929E-08  0.185E-04    0.66     135.1  T
     SCC iter.                  ...        0 min,  0.004 sec
     gradient                   ...        0 min,  0.001 sec
 * total energy  :   -23.2546484 Eh     change       -0.1491753E+00 Eh
   gradient norm :     0.0904534 Eh/α   predicted    -0.1510866E+00 (   1.28%)
   displ. norm   :     0.4072840 α      lambda       -0.5576815E-02
   maximum displ.:     0.4040388 α      in ANC's #1, #2, #41, ...

........................................................................
.............................. CYCLE    4 ..............................
........................................................................

 iter      E             dE          RMSdq      gap      omega  full diag
   1    -23.4833286 -0.234833E+02  0.423E-01    0.44       0.0  T
   2    -23.4834587 -0.130088E-03  0.269E-01    0.44       1.0  T
   3    -23.4834631 -0.442657E-05  0.625E-02    0.45       1.0  T
   4    -23.4834822 -0.190534E-04  0.150E-02    0.45       1.7  T
   5    -23.4834824 -0.186272E-06  0.603E-03    0.45       4.1  T
   6    -23.4834825 -0.904190E-07  0.212E-03    0.45      11.8  T
   7    -23.4834825 -0.162722E-07  0.110E-03    0.45      22.7  T
   8    -23.4834825 -0.660681E-08  0.575E-04    0.45      43.5  T
   9    -23.4834825 -0.229204E-08  0.225E-04    0.45     111.2  T
     SCC iter.                  ...        0 min,  0.004 sec
     gradient                   ...        0 min,  0.001 sec
 * total energy  :   -23.2493440 Eh     change        0.5304395E-02 Eh
   gradient norm :     0.2473436 Eh/α   predicted    -0.3250948E-02 (-161.29%)
   displ. norm   :     0.2542702 α      lambda       -0.2500068E-01
   maximum displ.:     0.2266342 α      in ANC's #1, #2, #31, ...

........................................................................
.............................. CYCLE    5 ..............................
........................................................................

 iter      E             dE          RMSdq      gap      omega  full diag
   1    -23.5028769 -0.235029E+02  0.299E-01    1.15       0.0  T
   2    -23.5029485 -0.716018E-04  0.185E-01    1.05       1.0  T
   3    -23.5029555 -0.695486E-05  0.383E-02    1.02       1.0  T
   4    -23.5029602 -0.473290E-05  0.111E-02    1.01       2.2  T
   5    -23.5029604 -0.166926E-06  0.557E-03    1.01       4.5  T
   6    -23.5029604 -0.313488E-07  0.149E-03    1.02      16.7  T
   7    -23.5029604 -0.754638E-08  0.524E-04    1.01      47.7  T
   8    -23.5029604 -0.111044E-08  0.349E-04    1.01      71.7  T
     SCC iter.                  ...        0 min,  0.004 sec
     gradient                   ...        0 min,  0.001 sec
 * total energy  :   -23.2524091 Eh     change       -0.3065102E-02 Eh
   gradient norm :     0.2423369 Eh/α   predicted    -0.1330852E-01 ( 334.20%)
   displ. norm   :     0.1427085 α      lambda       -0.9978330E-02
   maximum displ.:     0.1125639 α      in ANC's #1, #2, #31, ...

........................................................................
.............................. CYCLE    6 ..............................
........................................................................

 iter      E             dE          RMSdq      gap      omega  full diag
   1    -23.4983772 -0.234984E+02  0.174E-01    0.68       0.0  T
   2    -23.4984274 -0.501808E-04  0.112E-01    0.74       1.0  T
   3    -23.4984294 -0.204562E-05  0.349E-02    0.74       1.0  T
   4    -23.4984328 -0.339354E-05  0.757E-03    0.75       3.3  T
   5    -23.4984329 -0.749230E-07  0.367E-03    0.75       6.8  T
   6    -23.4984329 -0.145764E-07  0.740E-04    0.75      33.8  T
   7    -23.4984329 -0.673598E-09  0.300E-04    0.75      83.3  T
     SCC iter.                  ...        0 min,  0.004 sec
     gradient                   ...        0 min,  0.001 sec
 * total energy  :   -23.2574431 Eh     change       -0.5033997E-02 Eh
   gradient norm :     0.0241293 Eh/α   predicted    -0.5090773E-02 (   1.13%)
   displ. norm   :     0.0267644 α      lambda       -0.4304862E-03
   maximum displ.:     0.0148015 α      in ANC's #1, #2, #27, ...

........................................................................
.............................. CYCLE    7 ..............................
........................................................................

 iter      E             dE          RMSdq      gap      omega  full diag
   1    -23.4986406 -0.234986E+02  0.298E-02    0.77       0.0  T
   2    -23.4986425 -0.189741E-05  0.188E-02    0.77       1.3  T
   3    -23.4986426 -0.671384E-07  0.760E-03    0.77       3.3  T
   4    -23.4986427 -0.710052E-07  0.113E-03    0.77      22.1  T
   5    -23.4986427 -0.253550E-08  0.602E-04    0.77      41.5  T
   6    -23.4986427 -0.394603E-09  0.112E-04    0.77     223.0  T
     SCC iter.                  ...        0 min,  0.003 sec
     gradient                   ...        0 min,  0.001 sec
 * total energy  :   -23.2577676 Eh     change       -0.3245308E-03 Eh
   gradient norm :     0.0199055 Eh/α   predicted    -0.2153987E-03 ( -33.63%)
   displ. norm   :     0.0454443 α      lambda       -0.6143326E-03
   maximum displ.:     0.0160293 α      in ANC's #23, #13, #4, ...

........................................................................
.............................. CYCLE    8 ..............................
........................................................................

 iter      E             dE          RMSdq      gap      omega  full diag
   1    -23.4980316 -0.234980E+02  0.479E-02    0.76       0.0  T
   2    -23.4980366 -0.498140E-05  0.277E-02    0.76       1.0  T
   3    -23.4980368 -0.196543E-06  0.118E-02    0.77       2.1  T
   4    -23.4980369 -0.127703E-06  0.187E-03    0.77      13.3  T
   5    -23.4980369 -0.129516E-07  0.104E-03    0.77      24.1  T
   6    -23.4980369 -0.279893E-08  0.388E-04    0.77      64.4  T
   7    -23.4980369 -0.660688E-09  0.191E-04    0.77     130.8  T
     SCC iter.                  ...        0 min,  0.003 sec
     gradient                   ...        0 min,  0.001 sec
 * total energy  :   -23.2581585 Eh     change       -0.3909044E-03 Eh
   gradient norm :     0.0130615 Eh/α   predicted    -0.3078017E-03 ( -21.26%)
   displ. norm   :     0.0325274 α      lambda       -0.2183466E-03
   maximum displ.:     0.0143634 α      in ANC's #1, #4, #23, ...

........................................................................
.............................. CYCLE    9 ..............................
........................................................................

 iter      E             dE          RMSdq      gap      omega  full diag
   1    -23.4972572 -0.234973E+02  0.325E-02    0.77       0.0  T
   2    -23.4972597 -0.245514E-05  0.185E-02    0.77       1.4  T
   3    -23.4972598 -0.101396E-06  0.825E-03    0.77       3.0  T
   4    -23.4972598 -0.650305E-07  0.137E-03    0.77      18.2  T
   5    -23.4972598 -0.722282E-08  0.836E-04    0.77      29.9  T
   6    -23.4972598 -0.254004E-08  0.283E-04    0.77      88.3  T
     SCC iter.                  ...        0 min,  0.003 sec
     gradient                   ...        0 min,  0.001 sec
 * total energy  :   -23.2583294 Eh     change       -0.1708787E-03 Eh
   gradient norm :     0.0154271 Eh/α   predicted    -0.1092906E-03 ( -36.04%)
   displ. norm   :     0.0591234 α      lambda       -0.3484238E-03
   maximum displ.:     0.0260496 α      in ANC's #1, #4, #13, ...

........................................................................
.............................. CYCLE   10 ..............................
........................................................................

 iter      E             dE          RMSdq      gap      omega  full diag
   1    -23.4957799 -0.234958E+02  0.562E-02    0.77       0.0  T
   2    -23.4957867 -0.687456E-05  0.325E-02    0.77       1.0  T
   3    -23.4957870 -0.277141E-06  0.139E-02    0.77       1.8  T
   4    -23.4957872 -0.213219E-06  0.236E-03    0.78      10.6  T
   5    -23.4957873 -0.219888E-07  0.149E-03    0.78      16.8  T
   6    -23.4957873 -0.993383E-08  0.480E-04    0.78      52.1  T
   7    -23.4957873 -0.126744E-08  0.275E-04    0.78      90.8  T
     SCC iter.                  ...        0 min,  0.003 sec
     gradient                   ...        0 min,  0.001 sec
 * total energy  :   -23.2585705 Eh     change       -0.2410878E-03 Eh
   gradient norm :     0.0156926 Eh/α   predicted    -0.1748208E-03 ( -27.49%)
   displ. norm   :     0.0456888 α      lambda       -0.2259173E-03
   maximum displ.:     0.0195019 α      in ANC's #4, #13, #8, ...

........................................................................
.............................. CYCLE   11 ..............................
........................................................................

 iter      E             dE          RMSdq      gap      omega  full diag
   1    -23.4949102 -0.234949E+02  0.419E-02    0.78       0.0  T
   2    -23.4949130 -0.275543E-05  0.248E-02    0.78       1.0  T
   3    -23.4949131 -0.910530E-07  0.877E-03    0.78       2.8  T
   4    -23.4949132 -0.132377E-06  0.155E-03    0.78      16.1  T
   5    -23.4949132 -0.966462E-08  0.102E-03    0.78      24.5  T
   6    -23.4949132 -0.579979E-08  0.330E-04    0.78      75.8  T
   7    -23.4949132 -0.656598E-09  0.181E-04    0.78     138.4  T
     SCC iter.                  ...        0 min,  0.003 sec
     gradient                   ...        0 min,  0.001 sec
 * total energy  :   -23.2587322 Eh     change       -0.1616997E-03 Eh
   gradient norm :     0.0103981 Eh/α   predicted    -0.1131961E-03 ( -30.00%)
   displ. norm   :     0.0354576 α      lambda       -0.1637920E-03
   maximum displ.:     0.0174635 α      in ANC's #4, #8, #13, ...

........................................................................
.............................. CYCLE   12 ..............................
........................................................................

 iter      E             dE          RMSdq      gap      omega  full diag
   1    -23.4947590 -0.234948E+02  0.343E-02    0.78       0.0  T
   2    -23.4947595 -0.458933E-06  0.202E-02    0.78       1.2  T
   3    -23.4947595 -0.161391E-07  0.290E-03    0.78       8.6  T
   4    -23.4947596 -0.556608E-07  0.913E-04    0.78      27.4  T
   5    -23.4947596 -0.269899E-08  0.529E-04    0.78      47.2  T
     SCC iter.                  ...        0 min,  0.003 sec
     gradient                   ...        0 min,  0.001 sec
 * total energy  :   -23.2588428 Eh     change       -0.1105823E-03 Eh
   gradient norm :     0.0077479 Eh/α   predicted    -0.8199783E-04 ( -25.85%)
   displ. norm   :     0.0217279 α      lambda       -0.8306043E-04
   maximum displ.:     0.0120653 α      in ANC's #4, #8, #3, ...

........................................................................
.............................. CYCLE   13 ..............................
........................................................................

 iter      E             dE          RMSdq      gap      omega  full diag
   1    -23.4950611 -0.234951E+02  0.237E-02    0.78       0.0  T
   2    -23.4950612 -0.128522E-06  0.137E-02    0.78       1.8  T
   3    -23.4950612  0.122954E-08  0.182E-03    0.78      13.7  T
   4    -23.4950613 -0.216569E-07  0.463E-04    0.78      54.0  T
   5    -23.4950613 -0.350497E-09  0.255E-04    0.78      98.0  T
     SCC iter.                  ...        0 min,  0.003 sec
     gradient                   ...        0 min,  0.001 sec
 * total energy  :   -23.2589045 Eh     change       -0.6170246E-04 Eh
   gradient norm :     0.0081946 Eh/α   predicted    -0.4155085E-04 ( -32.66%)
   displ. norm   :     0.0278217 α      lambda       -0.9378813E-04
   maximum displ.:     0.0164432 α      in ANC's #4, #3, #8, ...

........................................................................
.............................. CYCLE   14 ..............................
........................................................................

 iter      E             dE          RMSdq      gap      omega  full diag
   1    -23.4955109 -0.234955E+02  0.300E-02    0.77       0.0  T
   2    -23.4955114 -0.435214E-06  0.175E-02    0.77       1.4  T
   3    -23.4955113  0.263578E-07  0.353E-03    0.77       7.1  T
   4    -23.4955114 -0.665686E-07  0.545E-04    0.77      45.9  T
   5    -23.4955114 -0.894602E-09  0.305E-04    0.77      81.9  T
     SCC iter.                  ...        0 min,  0.003 sec
     gradient                   ...        0 min,  0.001 sec
 * total energy  :   -23.2589736 Eh     change       -0.6910454E-04 Eh
   gradient norm :     0.0082918 Eh/α   predicted    -0.4693047E-04 ( -32.09%)
   displ. norm   :     0.0335740 α      lambda       -0.9660174E-04
   maximum displ.:     0.0209061 α      in ANC's #4, #3, #8, ...

........................................................................
.............................. CYCLE   15 ..............................
........................................................................

 iter      E             dE          RMSdq      gap      omega  full diag
   1    -23.4958539 -0.234959E+02  0.324E-02    0.77       0.0  T
   2    -23.4958544 -0.523575E-06  0.191E-02    0.77       1.3  T
   3    -23.4958544  0.345711E-07  0.383E-03    0.77       6.5  T
   4    -23.4958545 -0.907967E-07  0.675E-04    0.77      37.0  T
   5    -23.4958545 -0.124518E-08  0.394E-04    0.77      63.5  T
     SCC iter.                  ...        0 min,  0.003 sec
     gradient                   ...        0 min,  0.001 sec
 * total energy  :   -23.2590429 Eh     change       -0.6933591E-04 Eh
   gradient norm :     0.0069511 Eh/α   predicted    -0.4835607E-04 ( -30.26%)
   displ. norm   :     0.0318289 α      lambda       -0.7855419E-04
   maximum displ.:     0.0208865 α      in ANC's #4, #3, #8, ...

........................................................................
.............................. CYCLE   16 ..............................
........................................................................

 iter      E             dE          RMSdq      gap      omega  full diag
   1    -23.4959680 -0.234960E+02  0.251E-02    0.77       0.0  T
   2    -23.4959682 -0.219892E-06  0.148E-02    0.77       1.7  T
   3    -23.4959682  0.868599E-08  0.242E-03    0.77      10.3  T
   4    -23.4959683 -0.456464E-07  0.633E-04    0.77      39.5  T
   5    -23.4959683 -0.754923E-09  0.315E-04    0.77      79.3  T
     SCC iter.                  ...        0 min,  0.003 sec
     gradient                   ...        0 min,  0.001 sec
 * total energy  :   -23.2590995 Eh     change       -0.5657114E-04 Eh
   gradient norm :     0.0060412 Eh/α   predicted    -0.3931707E-04 ( -30.50%)
   displ. norm   :     0.0318361 α      lambda       -0.7091544E-04
   maximum displ.:     0.0215551 α      in ANC's #4, #3, #6, ...

........................................................................
.............................. CYCLE   17 ..............................
........................................................................

 iter      E             dE          RMSdq      gap      omega  full diag
   1    -23.4959753 -0.234960E+02  0.195E-02    0.77       0.0  T
   2    -23.4959753 -0.752383E-07  0.115E-02    0.77       2.2  T
   3    -23.4959753 -0.125691E-07  0.122E-03    0.77      20.5  T
   4    -23.4959754 -0.756458E-08  0.520E-04    0.77      48.1  T
   5    -23.4959754 -0.386546E-09  0.177E-04    0.77     141.2  T
     SCC iter.                  ...        0 min,  0.003 sec
     gradient                   ...        0 min,  0.001 sec
 * total energy  :   -23.2591532 Eh     change       -0.5374362E-04 Eh
   gradient norm :     0.0075782 Eh/α   predicted    -0.3549451E-04 ( -33.96%)
   displ. norm   :     0.0466797 α      lambda       -0.9840974E-04
   maximum displ.:     0.0317021 α      in ANC's #4, #3, #6, ...

........................................................................
.............................. CYCLE   18 ..............................
........................................................................

 iter      E             dE          RMSdq      gap      omega  full diag
   1    -23.4959799 -0.234960E+02  0.250E-02    0.77       0.0  T
   2    -23.4959801 -0.163181E-06  0.148E-02    0.77       1.7  T
   3    -23.4959801 -0.235926E-07  0.147E-03    0.78      17.0  T
   4    -23.4959801 -0.470146E-08  0.599E-04    0.78      41.7  T
   5    -23.4959801 -0.471854E-09  0.230E-04    0.78     108.6  T
     SCC iter.                  ...        0 min,  0.003 sec
     gradient                   ...        0 min,  0.001 sec
 * total energy  :   -23.2592278 Eh     change       -0.7453712E-04 Eh
   gradient norm :     0.0103468 Eh/α   predicted    -0.4931019E-04 ( -33.84%)
   displ. norm   :     0.0676399 α      lambda       -0.1343130E-03
   maximum displ.:     0.0458868 α      in ANC's #4, #3, #6, ...

........................................................................
.............................. CYCLE   19 ..............................
........................................................................

 iter      E             dE          RMSdq      gap      omega  full diag
   1    -23.4960113 -0.234960E+02  0.341E-02    0.78       0.0  T
   2    -23.4960118 -0.446084E-06  0.205E-02    0.79       1.2  T
   3    -23.4960118 -0.263970E-07  0.255E-03    0.79       9.8  T
   4    -23.4960118 -0.299205E-07  0.914E-04    0.79      27.4  T
   5    -23.4960118 -0.211792E-08  0.450E-04    0.79      55.6  T
     SCC iter.                  ...        0 min,  0.003 sec
     gradient                   ...        0 min,  0.001 sec
 * total energy  :   -23.2593278 Eh     change       -0.1000326E-03 Eh
   gradient norm :     0.0119399 Eh/α   predicted    -0.6746257E-04 ( -32.56%)
   displ. norm   :     0.0805138 α      lambda       -0.1545932E-03
   maximum displ.:     0.0547577 α      in ANC's #4, #3, #6, ...

........................................................................
.............................. CYCLE   20 ..............................
........................................................................

 iter      E             dE          RMSdq      gap      omega  full diag
   1    -23.4960596 -0.234961E+02  0.381E-02    0.79       0.0  T
   2    -23.4960603 -0.697347E-06  0.230E-02    0.80       1.1  T
   3    -23.4960603 -0.318890E-07  0.343E-03    0.80       7.3  T
   4    -23.4960603 -0.587260E-07  0.117E-03    0.80      21.3  T
   5    -23.4960603 -0.323896E-08  0.612E-04    0.80      40.8  T
   6    -23.4960604 -0.753317E-09  0.225E-04    0.80     110.9  T
     SCC iter.                  ...        0 min,  0.003 sec
     gradient                   ...        0 min,  0.001 sec
 * total energy  :   -23.2594408 Eh     change       -0.1130500E-03 Eh
   gradient norm :     0.0106663 Eh/α   predicted    -0.7779984E-04 ( -31.18%)
   displ. norm   :     0.0766094 α      lambda       -0.1473179E-03
   maximum displ.:     0.0522246 α      in ANC's #4, #3, #6, ...
 * RMSD in coord.:     0.1642670 α      energy gain  -0.5539827E+00 Eh

generating ANC from model Hessian ...
Using Lindh-Hessian (1995)
 Shifting diagonal of input Hessian by    2.3940435100217643E-002
 Lowest  eigenvalues of input Hessian
    0.010000    0.000000    0.000000    0.000000    0.000000    0.000000
    0.000000    0.025144    0.031688    0.037160    0.040608    0.053182
    0.066992    0.071929    0.073943    0.076523    0.079360    0.079834
 Highest eigenvalues
    1.262015    1.275746    1.412964    1.465370    6.816999   10.442654


........................................................................
.............................. CYCLE   21 ..............................
........................................................................

 iter      E             dE          RMSdq      gap      omega  full diag
   1    -23.4961388 -0.234961E+02  0.335E-02    0.81       0.0  T
   2    -23.4961394 -0.592783E-06  0.201E-02    0.82       1.2  T
   3    -23.4961394 -0.433494E-07  0.348E-03    0.81       7.2  T
   4    -23.4961395 -0.474581E-07  0.117E-03    0.82      21.4  T
   5    -23.4961395 -0.225883E-08  0.599E-04    0.81      41.8  T
   6    -23.4961395 -0.739035E-09  0.200E-04    0.81     125.1  T
     SCC iter.                  ...        0 min,  0.003 sec
     gradient                   ...        0 min,  0.001 sec
 * total energy  :   -23.2595477 Eh     change       -0.1068202E-03 Eh
   gradient norm :     0.0084667 Eh/α   predicted     0.0000000E+00 (-100.00%)
   displ. norm   :     0.0708323 α      lambda       -0.3520196E-03
   maximum displ.:     0.0527153 α      in ANC's #3, #7, #19, ...

........................................................................
.............................. CYCLE   22 ..............................
........................................................................

 iter      E             dE          RMSdq      gap      omega  full diag
   1    -23.4962677 -0.234963E+02  0.637E-02    0.81       0.0  T
   2    -23.4962684 -0.608661E-06  0.379E-02    0.81       1.0  T
   3    -23.4962683  0.115675E-07  0.412E-03    0.81       6.1  T
   4    -23.4962685 -0.153032E-06  0.136E-03    0.81      18.4  T
   5    -23.4962685 -0.672092E-09  0.440E-04    0.81      56.8  T
   6    -23.4962685 -0.303366E-09  0.937E-05    0.81     266.9  T
     SCC iter.                  ...        0 min,  0.003 sec
     gradient                   ...        0 min,  0.001 sec
 * total energy  :   -23.2598047 Eh     change       -0.2569965E-03 Eh
   gradient norm :     0.0040699 Eh/α   predicted    -0.1768935E-03 ( -31.17%)
   displ. norm   :     0.1269518 α      lambda       -0.2885554E-03
   maximum displ.:     0.1100749 α      in ANC's #3, #4, #11, ...

........................................................................
.............................. CYCLE   23 ..............................
........................................................................

 iter      E             dE          RMSdq      gap      omega  full diag
   1    -23.4959071 -0.234959E+02  0.890E-02    0.81       0.0  T
   2    -23.4959083 -0.114463E-05  0.531E-02    0.81       1.0  T
   3    -23.4959083 -0.116880E-07  0.583E-03    0.81       4.3  T
   4    -23.4959086 -0.299979E-06  0.203E-03    0.81      12.3  T
   5    -23.4959086 -0.140586E-08  0.568E-04    0.81      44.0  T
   6    -23.4959086 -0.442945E-09  0.141E-04    0.81     177.3  T
     SCC iter.                  ...        0 min,  0.003 sec
     gradient                   ...        0 min,  0.001 sec
 * total energy  :   -23.2600006 Eh     change       -0.1959028E-03 Eh
   gradient norm :     0.0066673 Eh/α   predicted    -0.1466036E-03 ( -25.17%)
   displ. norm   :     0.1439586 α      lambda       -0.1962240E-03
   maximum displ.:     0.1264459 α      in ANC's #3, #4, #1, ...

........................................................................
.............................. CYCLE   24 ..............................
........................................................................

 iter      E             dE          RMSdq      gap      omega  full diag
   1    -23.4952496 -0.234952E+02  0.889E-02    0.80       0.0  T
   2    -23.4952505 -0.942024E-06  0.533E-02    0.81       1.0  T
   3    -23.4952506 -0.265739E-07  0.486E-03    0.81       5.1  T
   4    -23.4952508 -0.229795E-06  0.181E-03    0.81      13.8  T
   5    -23.4952508 -0.122476E-08  0.499E-04    0.81      50.1  T
   6    -23.4952508 -0.242284E-09  0.128E-04    0.81     195.6  T
     SCC iter.                  ...        0 min,  0.003 sec
     gradient                   ...        0 min,  0.001 sec
 * total energy  :   -23.2601352 Eh     change       -0.1346343E-03 Eh
   gradient norm :     0.0110727 Eh/α   predicted    -0.1001436E-03 ( -25.62%)
   displ. norm   :     0.1979046 α      lambda       -0.2570385E-03
   maximum displ.:     0.1469204 α      in ANC's #3, #1, #4, ...

........................................................................
.............................. CYCLE   25 ..............................
........................................................................

 iter      E             dE          RMSdq      gap      omega  full diag
   1    -23.4953537 -0.234954E+02  0.118E-01    0.80       0.0  T
   2    -23.4953554 -0.178681E-05  0.709E-02    0.82       1.0  T
   3    -23.4953556 -0.123855E-06  0.559E-03    0.82       4.5  T
   4    -23.4953558 -0.217231E-06  0.239E-03    0.82      10.5  T
   5    -23.4953558 -0.649492E-08  0.105E-03    0.82      23.8  T
   6    -23.4953558 -0.187083E-08  0.326E-04    0.82      76.7  T
   7    -23.4953558 -0.438391E-09  0.155E-04    0.82     161.4  T
     SCC iter.                  ...        0 min,  0.003 sec
     gradient                   ...        0 min,  0.001 sec
 * total energy  :   -23.2603121 Eh     change       -0.1768705E-03 Eh
   gradient norm :     0.0107970 Eh/α   predicted    -0.1335524E-03 ( -24.49%)
   displ. norm   :     0.1792922 α      lambda       -0.2884848E-03
   maximum displ.:     0.1390511 α      in ANC's #3, #1, #4, ...

........................................................................
.............................. CYCLE   26 ..............................
........................................................................

 iter      E             dE          RMSdq      gap      omega  full diag
   1    -23.4954167 -0.234954E+02  0.109E-01    0.83       0.0  T
   2    -23.4954173 -0.625899E-06  0.650E-02    0.83       1.0  T
   3    -23.4954175 -0.165702E-06  0.283E-03    0.83       8.8  T
   4    -23.4954175 -0.245792E-07  0.157E-03    0.83      16.0  T
   5    -23.4954175 -0.433104E-09  0.339E-04    0.83      73.7  T
   6    -23.4954175 -0.523617E-09  0.981E-05    0.83     254.8  T
     SCC iter.                  ...        0 min,  0.003 sec
     gradient                   ...        0 min,  0.001 sec
 * total energy  :   -23.2605136 Eh     change       -0.2014938E-03 Eh
   gradient norm :     0.0102039 Eh/α   predicted    -0.1488792E-03 ( -26.11%)
   displ. norm   :     0.1616525 α      lambda       -0.2889753E-03
   maximum displ.:     0.1082471 α      in ANC's #1, #3, #4, ...

........................................................................
.............................. CYCLE   27 ..............................
........................................................................

 iter      E             dE          RMSdq      gap      omega  full diag
   1    -23.4979049 -0.234979E+02  0.104E-01    0.80       0.0  T
   2    -23.4979078 -0.294332E-05  0.617E-02    0.82       1.0  T
   3    -23.4979082 -0.398772E-06  0.824E-03    0.82       3.0  T
   4    -23.4979084 -0.252556E-06  0.330E-03    0.82       7.6  T
   5    -23.4979085 -0.176886E-07  0.151E-03    0.82      16.6  T
   6    -23.4979085 -0.612862E-08  0.592E-04    0.82      42.2  T
   7    -23.4979085 -0.170742E-08  0.229E-04    0.82     109.3  T
     SCC iter.                  ...        0 min,  0.003 sec
     gradient                   ...        0 min,  0.001 sec
 * total energy  :   -23.2605310 Eh     change       -0.1745958E-04 Eh
   gradient norm :     0.0208923 Eh/α   predicted    -0.1482637E-03 ( 749.18%)
   displ. norm   :     0.1700476 α      lambda       -0.4142363E-03
   maximum displ.:     0.1511084 α      in ANC's #3, #4, #6, ...

........................................................................
.............................. CYCLE   28 ..............................
........................................................................

 iter      E             dE          RMSdq      gap      omega  full diag
   1    -23.4958061 -0.234958E+02  0.124E-01    0.88       0.0  T
   2    -23.4958124 -0.627242E-05  0.739E-02    0.86       1.0  T
   3    -23.4958130 -0.653043E-06  0.132E-02    0.86       1.9  T
   4    -23.4958135 -0.533626E-06  0.390E-03    0.86       6.4  T
   5    -23.4958136 -0.182870E-07  0.176E-03    0.86      14.2  T
   6    -23.4958136 -0.409678E-08  0.557E-04    0.86      44.9  T
   7    -23.4958136 -0.943807E-09  0.168E-04    0.86     149.2  T
     SCC iter.                  ...        0 min,  0.003 sec
     gradient                   ...        0 min,  0.001 sec
 * total energy  :   -23.2606478 Eh     change       -0.1167592E-03 Eh
   gradient norm :     0.0248885 Eh/α   predicted    -0.2131062E-03 (  82.52%)
   displ. norm   :     0.0737419 α      lambda       -0.1696993E-03
   maximum displ.:     0.0584038 α      in ANC's #3, #4, #6, ...

........................................................................
.............................. CYCLE   29 ..............................
........................................................................

 iter      E             dE          RMSdq      gap      omega  full diag
   1    -23.4968613 -0.234969E+02  0.518E-02    0.83       0.0  T
   2    -23.4968619 -0.632777E-06  0.307E-02    0.84       1.0  T
   3    -23.4968620 -0.851898E-07  0.396E-03    0.84       6.3  T
   4    -23.4968621 -0.799255E-07  0.154E-03    0.84      16.2  T
   5    -23.4968621 -0.304307E-08  0.576E-04    0.84      43.4  T
   6    -23.4968621 -0.520455E-09  0.220E-04    0.84     113.4  T
     SCC iter.                  ...        0 min,  0.003 sec
     gradient                   ...        0 min,  0.001 sec
 * total energy  :   -23.2607231 Eh     change       -0.7530785E-04 Eh
   gradient norm :     0.0036707 Eh/α   predicted    -0.8531040E-04 (  13.28%)
   displ. norm   :     0.0689652 α      lambda       -0.3451177E-04
   maximum displ.:     0.0546346 α      in ANC's #3, #1, #6, ...

........................................................................
.............................. CYCLE   30 ..............................
........................................................................

 iter      E             dE          RMSdq      gap      omega  full diag
   1    -23.4965310 -0.234965E+02  0.437E-02    0.83       0.0  T
   2    -23.4965311 -0.993266E-07  0.261E-02    0.84       1.0  T
   3    -23.4965311 -0.261331E-07  0.121E-03    0.84      20.7  T
   4    -23.4965311 -0.499534E-08  0.644E-04    0.84      38.8  T
   5    -23.4965311 -0.253205E-09  0.192E-04    0.84     130.2  T
     SCC iter.                  ...        0 min,  0.003 sec
     gradient                   ...        0 min,  0.001 sec
 * total energy  :   -23.2607503 Eh     change       -0.2717122E-04 Eh
   gradient norm :     0.0057931 Eh/α   predicted    -0.1733701E-04 ( -36.19%)
   displ. norm   :     0.1779320 α      lambda       -0.1230031E-03
   maximum displ.:     0.1433823 α      in ANC's #3, #6, #4, ...

........................................................................
.............................. CYCLE   31 ..............................
........................................................................

 iter      E             dE          RMSdq      gap      omega  full diag
   1    -23.4963107 -0.234963E+02  0.127E-01    0.87       0.0  T
   2    -23.4963132 -0.250708E-05  0.757E-02    0.86       1.0  T
   3    -23.4963135 -0.308759E-06  0.650E-03    0.86       3.8  T
   4    -23.4963137 -0.173324E-06  0.264E-03    0.86       9.5  T
   5    -23.4963137 -0.385445E-08  0.101E-03    0.86      24.7  T
   6    -23.4963137 -0.169894E-08  0.252E-04    0.86      99.2  T
   7    -23.4963137 -0.178012E-09  0.814E-05    0.86     307.0  T
     SCC iter.                  ...        0 min,  0.004 sec
     gradient                   ...        0 min,  0.001 sec
 * total energy  :   -23.2607898 Eh     change       -0.3955457E-04 Eh
   gradient norm :     0.0160815 Eh/α   predicted    -0.6344656E-04 (  60.40%)
   displ. norm   :     0.0288640 α      lambda       -0.5895102E-04
   maximum displ.:     0.0224863 α      in ANC's #3, #4, #6, ...

........................................................................
.............................. CYCLE   32 ..............................
........................................................................

 iter      E             dE          RMSdq      gap      omega  full diag
   1    -23.4971110 -0.234971E+02  0.230E-02    0.84       0.0  T
   2    -23.4971115 -0.452470E-06  0.130E-02    0.85       1.9  T
   3    -23.4971115 -0.285440E-07  0.380E-03    0.85       6.6  T
   4    -23.4971115 -0.202472E-07  0.795E-04    0.85      31.4  T
   5    -23.4971115 -0.951992E-09  0.389E-04    0.85      64.3  T
     SCC iter.                  ...        0 min,  0.003 sec
     gradient                   ...        0 min,  0.001 sec
 * total energy  :   -23.2608232 Eh     change       -0.3339677E-04 Eh
   gradient norm :     0.0064466 Eh/α   predicted    -0.2949873E-04 ( -11.67%)
   displ. norm   :     0.0503614 α      lambda       -0.3238815E-04
   maximum displ.:     0.0406472 α      in ANC's #3, #1, #37, ...

........................................................................
.............................. CYCLE   33 ..............................
........................................................................

 iter      E             dE          RMSdq      gap      omega  full diag
   1    -23.4969722 -0.234970E+02  0.334E-02    0.84       0.0  T
   2    -23.4969725 -0.216168E-06  0.201E-02    0.84       1.2  T
   3    -23.4969725 -0.142960E-07  0.200E-03    0.84      12.5  T
   4    -23.4969725 -0.248327E-07  0.721E-04    0.84      34.7  T
   5    -23.4969725 -0.407923E-09  0.320E-04    0.84      78.1  T
     SCC iter.                  ...        0 min,  0.003 sec
     gradient                   ...        0 min,  0.001 sec
 * total energy  :   -23.2608455 Eh     change       -0.2227569E-04 Eh
   gradient norm :     0.0050062 Eh/α   predicted    -0.1623535E-04 ( -27.12%)
   displ. norm   :     0.0706266 α      lambda       -0.4351674E-04
   maximum displ.:     0.0558671 α      in ANC's #3, #37, #5, ...

........................................................................
.............................. CYCLE   34 ..............................
........................................................................

 iter      E             dE          RMSdq      gap      omega  full diag
   1    -23.4970880 -0.234971E+02  0.535E-02    0.85       0.0  T
   2    -23.4970883 -0.393021E-06  0.327E-02    0.85       1.0  T
   3    -23.4970885 -0.127422E-06  0.291E-03    0.85       8.6  T
   4    -23.4970885 -0.430389E-07  0.151E-03    0.85      16.5  T
   5    -23.4970885 -0.115073E-08  0.390E-04    0.85      64.1  T
   6    -23.4970885 -0.304372E-09  0.109E-04    0.85     228.8  T
     SCC iter.                  ...        0 min,  0.003 sec
     gradient                   ...        0 min,  0.001 sec
 * total energy  :   -23.2608774 Eh     change       -0.3192747E-04 Eh
   gradient norm :     0.0066208 Eh/α   predicted    -0.2186724E-04 ( -31.51%)
   displ. norm   :     0.0641701 α      lambda       -0.3851852E-04
   maximum displ.:     0.0464722 α      in ANC's #3, #37, #5, ...

........................................................................
.............................. CYCLE   35 ..............................
........................................................................

 iter      E             dE          RMSdq      gap      omega  full diag
   1    -23.4971595 -0.234972E+02  0.503E-02    0.85       0.0  T
   2    -23.4971600 -0.511189E-06  0.313E-02    0.85       1.0  T
   3    -23.4971602 -0.145771E-06  0.316E-03    0.85       7.9  T
   4    -23.4971602 -0.645686E-07  0.143E-03    0.85      17.5  T
   5    -23.4971602 -0.993335E-09  0.469E-04    0.85      53.3  T
   6    -23.4971602 -0.321290E-09  0.107E-04    0.85     233.2  T
     SCC iter.                  ...        0 min,  0.003 sec
     gradient                   ...        0 min,  0.001 sec
 * total energy  :   -23.2609039 Eh     change       -0.2645353E-04 Eh
   gradient norm :     0.0045240 Eh/α   predicted    -0.1933875E-04 ( -26.90%)
   displ. norm   :     0.0470869 α      lambda       -0.3361159E-04
   maximum displ.:     0.0350060 α      in ANC's #1, #37, #5, ...

........................................................................
.............................. CYCLE   36 ..............................
........................................................................

 iter      E             dE          RMSdq      gap      omega  full diag
   1    -23.4977303 -0.234977E+02  0.406E-02    0.85       0.0  T
   2    -23.4977307 -0.463485E-06  0.253E-02    0.85       1.0  T
   3    -23.4977308 -0.802343E-07  0.332E-03    0.85       7.5  T
   4    -23.4977309 -0.619503E-07  0.108E-03    0.85      23.1  T
   5    -23.4977309 -0.688715E-09  0.469E-04    0.85      53.3  T
   6    -23.4977309 -0.201098E-09  0.665E-05    0.85     375.9  T
     SCC iter.                  ...        0 min,  0.003 sec
     gradient                   ...        0 min,  0.001 sec
 * total energy  :   -23.2609229 Eh     change       -0.1902260E-04 Eh
   gradient norm :     0.0037656 Eh/α   predicted    -0.1684250E-04 ( -11.46%)
   displ. norm   :     0.0952454 α      lambda       -0.4278654E-04
   maximum displ.:     0.0715153 α      in ANC's #3, #37, #1, ...

........................................................................
.............................. CYCLE   37 ..............................
........................................................................

 iter      E             dE          RMSdq      gap      omega  full diag
   1    -23.4967592 -0.234968E+02  0.748E-02    0.86       0.0  T
   2    -23.4967604 -0.115685E-05  0.469E-02    0.85       1.0  T
   3    -23.4967608 -0.429585E-06  0.427E-03    0.85       5.9  T
   4    -23.4967609 -0.984895E-07  0.194E-03    0.85      12.9  T
   5    -23.4967609 -0.211974E-08  0.720E-04    0.85      34.7  T
   6    -23.4967609 -0.103520E-08  0.155E-04    0.85     160.9  T
     SCC iter.                  ...        0 min,  0.003 sec
     gradient                   ...        0 min,  0.001 sec
 * total energy  :   -23.2609302 Eh     change       -0.7278009E-05 Eh
   gradient norm :     0.0077597 Eh/α   predicted    -0.2158825E-04 ( 196.62%)
   displ. norm   :     0.0440399 α      lambda       -0.5286034E-04
   maximum displ.:     0.0311170 α      in ANC's #3, #37, #5, ...

........................................................................
.............................. CYCLE   38 ..............................
........................................................................

 iter      E             dE          RMSdq      gap      omega  full diag
   1    -23.4974275 -0.234974E+02  0.383E-02    0.86       0.0  T
   2    -23.4974277 -0.224440E-06  0.234E-02    0.86       1.1  T
   3    -23.4974278 -0.926330E-07  0.225E-03    0.86      11.1  T
   4    -23.4974278 -0.147561E-07  0.123E-03    0.86      20.3  T
   5    -23.4974278 -0.128708E-08  0.332E-04    0.86      75.2  T
   6    -23.4974278 -0.296865E-09  0.118E-04    0.86     211.1  T
     SCC iter.                  ...        0 min,  0.003 sec
     gradient                   ...        0 min,  0.001 sec
 * total energy  :   -23.2609567 Eh     change       -0.2648710E-04 Eh
   gradient norm :     0.0056240 Eh/α   predicted    -0.2648139E-04 (  -0.02%)
   displ. norm   :     0.0374471 α      lambda       -0.2258654E-04
   maximum displ.:     0.0231011 α      in ANC's #1, #6, #37, ...

........................................................................
.............................. CYCLE   39 ..............................
........................................................................

 iter      E             dE          RMSdq      gap      omega  full diag
   1    -23.4975619 -0.234976E+02  0.389E-02    0.85       0.0  T
   2    -23.4975620 -0.110975E-06  0.235E-02    0.85       1.1  T
   3    -23.4975620 -0.479496E-07  0.161E-03    0.85      15.6  T
   4    -23.4975620 -0.450948E-08  0.884E-04    0.85      28.3  T
   5    -23.4975620 -0.809496E-09  0.227E-04    0.85     110.1  T
     SCC iter.                  ...        0 min,  0.003 sec
     gradient                   ...        0 min,  0.001 sec
 * total energy  :   -23.2609752 Eh     change       -0.1857077E-04 Eh
   gradient norm :     0.0023757 Eh/α   predicted    -0.1130858E-04 ( -39.11%)
   displ. norm   :     0.1122659 α      lambda       -0.5499368E-04
   maximum displ.:     0.0549279 α      in ANC's #6, #37, #3, ...

........................................................................
.............................. CYCLE   40 ..............................
........................................................................

 iter      E             dE          RMSdq      gap      omega  full diag
   1    -23.4967417 -0.234967E+02  0.109E-01    0.86       0.0  T
   2    -23.4967429 -0.123294E-05  0.664E-02    0.86       1.0  T
   3    -23.4967434 -0.509971E-06  0.499E-03    0.86       5.0  T
   4    -23.4967435 -0.350783E-07  0.279E-03    0.86       9.0  T
   5    -23.4967435 -0.347334E-08  0.698E-04    0.86      35.8  T
   6    -23.4967435 -0.145237E-08  0.245E-04    0.86     102.2  T
     SCC iter.                  ...        0 min,  0.003 sec
     gradient                   ...        0 min,  0.001 sec
 * total energy  :   -23.2609973 Eh     change       -0.2205360E-04 Eh
   gradient norm :     0.0036773 Eh/α   predicted    -0.2784288E-04 (  26.25%)
   displ. norm   :     0.0291544 α      lambda       -0.1632545E-04
   maximum displ.:     0.0165556 α      in ANC's #1, #3, #37, ...

........................................................................
.............................. CYCLE   41 ..............................
........................................................................

 iter      E             dE          RMSdq      gap      omega  full diag
   1    -23.4973904 -0.234974E+02  0.267E-02    0.86       0.0  T
   2    -23.4973905 -0.134653E-06  0.168E-02    0.86       1.5  T
   3    -23.4973906 -0.599961E-07  0.143E-03    0.86      17.4  T
   4    -23.4973906 -0.786044E-08  0.689E-04    0.86      36.3  T
   5    -23.4973906 -0.281123E-09  0.236E-04    0.86     105.8  T
     SCC iter.                  ...        0 min,  0.003 sec
     gradient                   ...        0 min,  0.001 sec
 * total energy  :   -23.2610038 Eh     change       -0.6484860E-05 Eh
   gradient norm :     0.0025192 Eh/α   predicted    -0.8169358E-05 (  25.98%)
   displ. norm   :     0.0139681 α      lambda       -0.3900169E-05
   maximum displ.:     0.0077634 α      in ANC's #3, #37, #4, ...

........................................................................
.............................. CYCLE   42 ..............................
........................................................................

 iter      E             dE          RMSdq      gap      omega  full diag
   1    -23.4974126 -0.234974E+02  0.111E-02    0.86       0.0  T
   2    -23.4974126 -0.118445E-07  0.673E-03    0.86       3.7  T
   3    -23.4974127 -0.475807E-08  0.485E-04    0.86      51.6  T
   4    -23.4974127 -0.425530E-09  0.275E-04    0.86      91.1  T
     SCC iter.                  ...        0 min,  0.002 sec
     gradient                   ...        0 min,  0.001 sec
 * total energy  :   -23.2610069 Eh     change       -0.3102904E-05 Eh
   gradient norm :     0.0009746 Eh/α   predicted    -0.1950652E-05 ( -37.13%)
   displ. norm   :     0.0626874 α      lambda       -0.7635238E-05
   maximum displ.:     0.0429410 α      in ANC's #3, #37, #4, ...

   *** GEOMETRY OPTIMIZATION CONVERGED AFTER 42 ITERATIONS ***

------------------------------------------------------------------------
 total energy gain   :        -0.5555488 Eh     -348.6121 kcal/mol
 total RMSD          :         0.4273451 a0        0.2261 Å
 total power (kW/mol):       -34.7284063 (step)-6878.9348 (real)
------------------------------------------------------------------------

 ANCopt (total)                0 d,  0 h,  0 min,  0.212 sec
 optimizer setup                ...        0 min,  0.000 sec (  0.053%)
 model hessian                  ...        0 min,  0.010 sec (  4.752%)
 ANC generation                 ...        0 min,  0.001 sec (  0.329%)
 coordinate transformation      ...        0 min,  0.000 sec (  0.094%)
 single point calculation       ...        0 min,  0.189 sec ( 89.149%)
 optimization log               ...        0 min,  0.004 sec (  1.694%)
 hessian update                 ...        0 min,  0.000 sec (  0.231%)
 rational function              ...        0 min,  0.005 sec (  2.370%)

================
 final structure:
================
16
 xtb: 6.6.1 (8d0f1dd)
O            2.30879238043352       -1.28309702697378        0.93432746719562
O            1.48301998509326        0.03604056757729        0.53296431387986
C            0.68575159370794       -0.23808833950548       -0.56207232406232
C           -0.45868114335163       -1.18060682609318       -0.17338741416282
C           -1.33715990731708       -0.27434089784795        0.58938302371118
C           -1.12646678390836        1.14718120075888        0.23227414458932
C           -0.01712841039880        1.10561263558441       -0.82523232789165
H            2.84732669330923       -0.90157456607612        1.63410079199369
H            1.28688847034498       -0.58536980247019       -1.41208017094200
H           -0.09397612037528       -2.02607793411301        0.41256491876930
H           -0.93834810891147       -1.58110956909618       -1.07781066172418
H           -2.04334506940651       -0.59822095218678        1.32822966328908
H           -0.81293254410585        1.73091781793280        1.10638433228882
H           -2.03692602429434        1.62484026453368       -0.14938201019783
H            0.68346614925913        1.93345051563877       -0.73728590633900
H           -0.43000116007876        1.09063291233666       -1.83298784039696

 Bond Distances (Angstroems)
 ---------------------------
O1-O2=1.6072         O1-H8=0.9619         O2-O1=1.6072         O2-C3=1.3820         C3-O2=1.3820         C3-C4=1.5327         
C3-C7=1.5391         C3-H9=1.0975         C4-C3=1.5327         C4-C5=1.4747         C4-H10=1.0914        C4-H11=1.0993        
C5-C4=1.4747         C5-C6=1.4808         C5-H12=1.0721        C6-C5=1.4808         C6-C7=1.5332         C6-H13=1.0969        
C6-H14=1.0967        C7-C3=1.5391         C7-C6=1.5332         C7-H15=1.0881        C7-H16=1.0892        H8-O1=0.9619         
H9-C3=1.0975         H10-C4=1.0914        H11-C4=1.0993        H12-C5=1.0721        H13-C6=1.0969        H14-C6=1.0967        
H15-C7=1.0881        H16-C7=1.0892        
 C  H  Rav=1.0914 sigma=0.0083  Rmin=1.0721  Rmax=1.0993     8
 C  C  Rav=1.5121 sigma=0.0282  Rmin=1.4747  Rmax=1.5391     5
 O  H  Rav=0.9619 sigma=0.0000  Rmin=0.9619  Rmax=0.9619     1
 O  C  Rav=1.3820 sigma=0.0000  Rmin=1.3820  Rmax=1.3820     1
 O  O  Rav=1.6072 sigma=0.0000  Rmin=1.6072  Rmax=1.6072     1

 selected bond angles (degree)
 --------------------
H8-O1-O2= 98.27                C3-O2-O1=109.36                C4-C3-O2=110.60                C7-C3-O2=103.05                
C7-C3-C4=103.84                H9-C3-O2=111.13                H9-C3-C4=114.26                H9-C3-C7=113.20                
C5-C4-C3=101.42                H10-C4-C3=111.29               H10-C4-C5=113.42               H11-C4-C3=109.95               
H11-C4-C5=112.92               H11-C4-H10=107.78              C6-C5-C4=112.36                H12-C5-C4=124.27               
H12-C5-C6=123.36               C7-C6-C5=104.08                H13-C6-C5=111.06               H13-C6-C7=110.93               
H14-C6-C5=112.58               H14-C6-C7=111.87               H14-C6-H13=106.43              C6-C7-C3=103.66                
H15-C7-C3=110.88               H15-C7-C6=112.92               H16-C7-C3=108.62               H16-C7-C6=111.36               
H16-C7-H15=109.23              

 selected dihedral angles (degree)
 ---------------------------------
C4-C3-O2-O1= 70.07            C7-C3-O2-O1=180.52            H9-C3-O2-O1=302.07            C5-C4-C3-O2= 73.69            
C5-C4-C3-C7=323.75            C5-C4-C3-H9=199.96            H10-C4-C3-O2=312.76           H10-C4-C3-C7=202.83           
H10-C4-C3-H9= 79.04           H11-C4-C3-O2=193.43           H11-C4-C3-C7= 83.49           H11-C4-C3-H9=319.70           
C6-C5-C4-C3= 23.21            C6-C5-C4-H10=142.63           C6-C5-C4-H11=265.61           H12-C5-C4-C3=203.85           
H12-C5-C4-H10=323.26          H12-C5-C4-H11= 86.25          C7-C6-C5-C4=359.37            C7-C6-C5-H12=178.74           
H13-C6-C5-C4=239.95           H13-C6-C5-H12= 59.31          H14-C6-C5-C4=120.71           H14-C6-C5-H12=300.08          
C6-C7-C3-O2=281.44            C6-C7-C3-C4= 36.85            C6-C7-C3-H9=161.32            H15-C7-C3-O2= 42.89           
H15-C7-C3-C4=158.30           H15-C7-C3-H9=282.76           H16-C7-C3-O2=162.92           H16-C7-C3-C4=278.33           
H16-C7-C3-H9= 42.79           C3-C7-C6-C5=337.67            C3-C7-C6-H13= 97.18           C3-C7-C6-H14=215.85           
H15-C7-C6-C5=217.60           H15-C7-C6-H13=337.12          H15-C7-C6-H14= 95.79          H16-C7-C6-C5= 94.28           
H16-C7-C6-H13=213.79          H16-C7-C6-H14=332.46          
           -------------------------------------------------
          |                Final Singlepoint                |
           -------------------------------------------------

          ...................................................
          :                      SETUP                      :
          :.................................................:
          :  # basis functions                  37          :
          :  # atomic orbitals                  37          :
          :  # shells                           23          :
          :  # electrons                        41          :
          :  max. iterations                   250          :
          :  Hamiltonian                  GFN2-xTB          :
          :  restarted?                      false          :
          :  GBSA solvation                  false          :
          :  PC potential                    false          :
          :  electronic temp.          300.0000000     K    :
          :  accuracy                    1.0000000          :
          :  -> integral cutoff          0.2500000E+02      :
          :  -> integral neglect         0.1000000E-07      :
          :  -> SCF convergence          0.1000000E-05 Eh   :
          :  -> wf. convergence          0.1000000E-03 e    :
          :  Broyden damping             0.4000000          :
          ...................................................

 iter      E             dE          RMSdq      gap      omega  full diag
   1    -23.4974127 -0.234974E+02  0.693E-05    0.86       0.0  T
   2    -23.4974127 -0.140687E-10  0.392E-05    0.86     637.1  T
   3    -23.4974127 -0.128253E-11  0.214E-05    0.86    1166.4  T

   *** convergence criteria satisfied after 3 iterations ***

         #    Occupation            Energy/Eh            Energy/eV
      -------------------------------------------------------------
         1        2.0000           -0.7012935             -19.0832
       ...           ...                  ...                  ...
        15        2.0000           -0.4601576             -12.5215
        16        2.0000           -0.4528826             -12.3236
        17        2.0000           -0.4518954             -12.2967
        18        2.0000           -0.4484961             -12.2042
        19        2.0000           -0.4450351             -12.1100
        20        2.0000           -0.4097127             -11.1489
        21        1.0000           -0.2929649              -7.9720 (HOMO)
        22                         -0.2614488              -7.1144 (LUMO)
        23                          0.0583596               1.5880
        24                          0.0697436               1.8978
        25                          0.1011380               2.7521
        26                          0.1120753               3.0497
       ...                                ...                  ...
        37                          0.3966426              10.7932
      -------------------------------------------------------------
                  HL-Gap            0.0315161 Eh            0.8576 eV
             Fermi-level           -0.3142728 Eh           -8.5518 eV

 SCC (total)                   0 d,  0 h,  0 min,  0.003 sec
 SCC setup                      ...        0 min,  0.000 sec (  2.233%)
 Dispersion                     ...        0 min,  0.000 sec (  1.805%)
 classical contributions        ...        0 min,  0.000 sec (  0.364%)
 integral evaluation            ...        0 min,  0.000 sec (  8.820%)
 iterations                     ...        0 min,  0.002 sec ( 55.329%)
 molecular gradient             ...        0 min,  0.001 sec ( 26.657%)
 printout                       ...        0 min,  0.000 sec (  4.159%)

         :::::::::::::::::::::::::::::::::::::::::::::::::::::
         ::                     SUMMARY                     ::
         :::::::::::::::::::::::::::::::::::::::::::::::::::::
         :: total energy             -23.261006872321 Eh    ::
         :: gradient norm              0.000975705019 Eh/a0 ::
         :: HOMO-LUMO gap              0.857597116045 eV    ::
         ::.................................................::
         :: SCC energy               -23.497412652071 Eh    ::
         :: -> isotropic ES            0.031382659236 Eh    ::
         :: -> anisotropic ES         -0.003900703188 Eh    ::
         :: -> anisotropic XC          0.003634823957 Eh    ::
         :: -> dispersion             -0.009839399050 Eh    ::
         :: repulsion energy           0.235831972155 Eh    ::
         :: add. restraining           0.000546332553 Eh    ::
         :: total charge               0.000000000000 e     ::
         :::::::::::::::::::::::::::::::::::::::::::::::::::::

           -------------------------------------------------
          |                Property Printout                |
           -------------------------------------------------

    * Orbital Energies and Occupations

         #    Occupation            Energy/Eh            Energy/eV
      -------------------------------------------------------------
         1        2.0000           -0.7012935             -19.0832
       ...           ...                  ...                  ...
         9        2.0000           -0.5498357             -14.9618
        10        2.0000           -0.5376774             -14.6309
        11        2.0000           -0.5190750             -14.1247
        12        2.0000           -0.5055292             -13.7562
        13        2.0000           -0.5032179             -13.6933
        14        2.0000           -0.4723448             -12.8532
        15        2.0000           -0.4601576             -12.5215
        16        2.0000           -0.4528826             -12.3236
        17        2.0000           -0.4518954             -12.2967
        18        2.0000           -0.4484961             -12.2042
        19        2.0000           -0.4450351             -12.1100
        20        2.0000           -0.4097127             -11.1489
        21        1.0000           -0.2929649              -7.9720 (HOMO)
        22                         -0.2614488              -7.1144 (LUMO)
        23                          0.0583596               1.5880
        24                          0.0697436               1.8978
        25                          0.1011380               2.7521
        26                          0.1120753               3.0497
        27                          0.1266494               3.4463
        28                          0.1337287               3.6389
        29                          0.1510878               4.1113
        30                          0.1591122               4.3297
        31                          0.1862500               5.0681
        32                          0.2120688               5.7707
       ...                                ...                  ...
        37                          0.3966426              10.7932
      -------------------------------------------------------------
                  HL-Gap            0.0315161 Eh            0.8576 eV
             Fermi-level           -0.3142728 Eh           -8.5518 eV

     #   Z          covCN         q      C6AA      α(0)
     1   8 O        1.470    -0.360    20.259     6.067
     2   8 O        1.521    -0.217    17.714     5.677
     3   6 C        3.778     0.133    18.452     6.120
     4   6 C        3.822    -0.062    21.669     6.624
     5   6 C        2.945    -0.068    29.703     8.939
     6   6 C        3.821    -0.052    21.494     6.598
     7   6 C        3.837    -0.059    21.598     6.612
     8   1 H        0.805     0.314     0.679     1.294
     9   1 H        0.924     0.028     2.613     2.528
    10   1 H        0.924     0.066     2.128     2.281
    11   1 H        0.923     0.045     2.379     2.412
    12   1 H        0.926     0.029     2.601     2.522
    13   1 H        0.924     0.057     2.240     2.341
    14   1 H        0.924     0.046     2.367     2.406
    15   1 H        0.925     0.052     2.296     2.370
    16   1 H        0.925     0.048     2.351     2.398

 Mol. C6AA /au·bohr⁶  :       2062.239155
 Mol. C8AA /au·bohr⁸  :      44803.245671
 Mol. α(0) /au        :         67.187967


Wiberg/Mayer (AO) data.
largest (>0.10) Wiberg bond orders for each atom

 ---------------------------------------------------------------------------
     #   Z sym  total        # sym  WBO       # sym  WBO       # sym  WBO
 ---------------------------------------------------------------------------
     1   8 O    1.901 --     2 O    0.913     8 H    0.898
     2   8 O    2.018 --     3 C    1.018     1 O    0.913
     3   6 C    3.944 --     2 O    1.018     4 C    0.972     9 H    0.958
                             7 C    0.945
     4   6 C    3.996 --     5 C    1.077     3 C    0.972    10 H    0.955
                            11 H    0.935
     5   6 C    3.300 --     4 C    1.077     6 C    1.074    12 H    0.976
     6   6 C    3.997 --     5 C    1.074     7 C    1.003    14 H    0.947
                            13 H    0.944
     7   6 C    3.993 --     6 C    1.003    15 H    0.977    16 H    0.973
                             3 C    0.945
     8   1 H    0.901 --     1 O    0.898
     9   1 H    0.999 --     3 C    0.958
    10   1 H    0.995 --     4 C    0.955
    11   1 H    0.996 --     4 C    0.935
    12   1 H    0.999 --     5 C    0.976
    13   1 H    0.995 --     6 C    0.944
    14   1 H    0.995 --     6 C    0.947
    15   1 H    0.997 --     7 C    0.977
    16   1 H    0.998 --     7 C    0.973
 ---------------------------------------------------------------------------

Topologies differ in total number of bonds
Writing topology from bond orders to xtbtopo.mol

molecular dipole:
                 x           y           z       tot (Debye)
 q only:       -0.349       0.363      -0.187
   full:       -0.212       0.406      -0.172       1.243
molecular quadrupole (traceless):
                xx          xy          yy          xz          yz          zz
 q only:       -0.509       0.771      -1.034       2.214      -0.160       1.543
  q+dip:       -0.229       1.370      -2.401       2.677       0.020       2.630
   full:       -0.133       0.974      -2.139       3.220      -0.085       2.271

           -------------------------------------------------
          |                Geometry Summary                 |
           -------------------------------------------------

      molecular mass/u    :      101.1239561
   center of mass at/Å    :        0.3169207      -0.1239678       0.1371128
  moments of inertia/u·Å² :        0.1050570E+03   0.2453615E+03   0.2793657E+03
rotational constants/cm⁻¹ :        0.1604618E+00   0.6870529E-01   0.6034253E-01

 * 14 selected distances

     #   Z          #   Z                                           value/Å
     2   8 O        3   6 C                                       1.3819874
     3   6 C        4   6 C                                       1.5326917
     4   6 C        5   6 C                                       1.4747413
     5   6 C        6   6 C                                       1.4807579
     3   6 C        7   6 C                                       1.5390992 (max)
     6   6 C        7   6 C                                       1.5331927
     3   6 C        9   1 H                                       1.0974896
     4   6 C       10   1 H                                       1.0914080
     4   6 C       11   1 H                                       1.0993018
     5   6 C       12   1 H                                       1.0721429 (min)
     6   6 C       13   1 H                                       1.0968687
     6   6 C       14   1 H                                       1.0967023
     7   6 C       15   1 H                                       1.0880639
     7   6 C       16   1 H                                       1.0891555

 * 3 distinct bonds (by element types)

   Z      Z             #   av. dist./Å        max./Å        min./Å
   1 H    6 C           8     1.0913916     1.0993018     1.0721429
   6 C    6 C           5     1.5120966     1.5390992     1.4747413
   6 C    8 O           1     1.3819874     1.3819874     1.3819874


optimized geometry written to: xtbopt.xyz


           -------------------------------------------------
          | TOTAL ENERGY              -23.261006872321 Eh   |
          | GRADIENT NORM               0.000975705019 Eh/α |
          | HOMO-LUMO GAP               0.857597116045 eV   |
           -------------------------------------------------

------------------------------------------------------------------------
 * finished run on 2025/05/23 at 13:10:39.254     
------------------------------------------------------------------------
 total:
 * wall-time:     0 d,  0 h,  0 min,  0.232 sec
 *  cpu-time:     0 d,  0 h,  0 min,  3.459 sec
 * ratio c/w:    14.929 speedup
 SCF:
 * wall-time:     0 d,  0 h,  0 min,  0.009 sec
 *  cpu-time:     0 d,  0 h,  0 min,  0.134 sec
 * ratio c/w:    14.827 speedup
 ANC optimizer:
 * wall-time:     0 d,  0 h,  0 min,  0.216 sec
 *  cpu-time:     0 d,  0 h,  0 min,  3.233 sec
 * ratio c/w:    14.956 speedup

