      -----------------------------------------------------------      
     |                   =====================                   |     
     |                           x T B                           |     
     |                   =====================                   |     
     |                         S. Grimme                         |     
     |          Mulliken Center for Theoretical Chemistry        |     
     |                    University of Bonn                     |     
      -----------------------------------------------------------      

   * xtb version 6.6.1 (8d0f1dd) compiled by 'conda@1efc2f54142f' on 2023-08-01

   xtb is free software: you can redistribute it and/or modify it under
   the terms of the GNU Lesser General Public License as published by
   the Free Software Foundation, either version 3 of the License, or
   (at your option) any later version.
   
   xtb is distributed in the hope that it will be useful,
   but WITHOUT ANY WARRANTY; without even the implied warranty of
   MERCHANTABILITY or FITNESS FOR A PARTICULAR PURPOSE.  See the
   GNU Lesser General Public License for more details.
   
   Cite this work as:
   * C. Bannwarth, E. Caldeweyher, S. Ehlert, A. Hansen, P. Pracht,
     J. Seibert, S. Spicher, S. Grimme, WIREs Comput. Mol. Sci., 2020, 11,
     e01493. DOI: 10.1002/wcms.1493
   
   for GFN2-xTB:
   * C. Bannwarth, S. Ehlert and S. Grimme., J. Chem. Theory Comput., 2019,
     15, 1652-1671. DOI: 10.1021/acs.jctc.8b01176
   for GFN1-xTB:
   * S. Grimme, C. Bannwarth, P. Shushkov, J. Chem. Theory Comput., 2017,
     13, 1989-2009. DOI: 10.1021/acs.jctc.7b00118
   for GFN0-xTB:
   * P. Pracht, E. Caldeweyher, S. Ehlert, S. Grimme, ChemRxiv, 2019, preprint.
     DOI: 10.26434/chemrxiv.8326202.v1
   for GFN-FF:
   * S. Spicher and S. Grimme, Angew. Chem. Int. Ed., 2020, 59, 15665-15673.
     DOI: 10.1002/anie.202004239
   
   for ALPB and GBSA implicit solvation:
   * S. Ehlert, M. Stahn, S. Spicher, S. Grimme, J. Chem. Theory Comput.,
     2021, 17, 4250-4261. DOI: 10.1021/acs.jctc.1c00471
   
   for DFT-D4:
   * E. Caldeweyher, C. Bannwarth and S. Grimme, J. Chem. Phys., 2017,
     147, 034112. DOI: 10.1063/1.4993215
   * E. Caldeweyher, S. Ehlert, A. Hansen, H. Neugebauer, S. Spicher,
     C. Bannwarth and S. Grimme, J. Chem. Phys., 2019, 150, 154122.
     DOI: 10.1063/1.5090222
   * E. Caldeweyher, J.-M. Mewes, S. Ehlert and S. Grimme, Phys. Chem. Chem. Phys.
     2020, 22, 8499-8512. DOI: 10.1039/D0CP00502A
   
   for sTDA-xTB:
   * S. Grimme and C. Bannwarth, J. Chem. Phys., 2016, 145, 054103.
     DOI: 10.1063/1.4959605
   
   in the mass-spec context:
   * V. Asgeirsson, C. Bauer and S. Grimme, Chem. Sci., 2017, 8, 4879.
     DOI: 10.1039/c7sc00601b
   * J. Koopman and S. Grimme, ACS Omega 2019, 4, 12, 15120-15133.
     DOI: 10.1021/acsomega.9b02011
   
   for metadynamics refer to:
   * S. Grimme, J. Chem. Theory Comput., 2019, 155, 2847-2862
     DOI: 10.1021/acs.jctc.9b00143
   
   for SPH calculations refer to:
   * S. Spicher and S. Grimme, J. Chem. Theory Comput., 2021, 17, 1701-1714
     DOI: 10.1021/acs.jctc.0c01306
   
   with help from (in alphabetical order)
   P. Atkinson, C. Bannwarth, F. Bohle, G. Brandenburg, E. Caldeweyher
   M. Checinski, S. Dohm, S. Ehlert, S. Ehrlich, I. Gerasimov, C. Hölzer
   A. Katbashev, J. Koopman, C. Lavigne, S. Lehtola, F. März, M. Müller,
   F. Musil, H. Neugebauer, J. Pisarek, C. Plett, P. Pracht, F. Pultar,
   J. Seibert, P. Shushkov, S. Spicher, M. Stahn, M. Steiner, T. Strunk,
   J. Stückrath, T. Rose, and J. Unsleber
   
 * started run on 2025/05/23 at 13:10:40.822     

           -------------------------------------------------
          |                Calculation Setup                |
           -------------------------------------------------

          program call               : /gpfs/fs1/home/copan/code/autode-practice/.pixi/envs/default/bin/xtb path_opt4_xtb.xyz --chrg 0 --uhf 1 --opt --input xcontrol_path_opt4_xtb
          hostname                   : csed-0021
          coordinate file            : path_opt4_xtb.xyz
          omp threads                :                     8

   ID    Z sym.   atoms
    1    8 O      1, 2
    2    6 C      3-7
    3    1 H      8-16
constraining bond 2 5 to    1.7359000 Å, actual value:    2.0359171 Å
constraining bond 1 2 to    1.8256000 Å, actual value:    1.7386871 Å

molecular fragmentation (1/2 indicates fragments):
1222222122222222
# atoms in fragment 1/2:     2    14
 fragment masses (1/2) :       17.01       84.12
CMA distance (Bohr)    :   5.609
constraining FC (au)   :  2.0000

           -------------------------------------------------
          |                 G F N 2 - x T B                 |
           -------------------------------------------------

        Reference                      10.1021/acs.jctc.8b01176
      * Hamiltonian:
        H0-scaling (s, p, d)           1.850000    2.230000    2.230000
        zeta-weighting                 0.500000
      * Dispersion:
        s8                             2.700000
        a1                             0.520000
        a2                             5.000000
        s9                             5.000000
      * Repulsion:
        kExp                           1.500000    1.000000
        rExp                           1.000000
      * Coulomb:
        alpha                          2.000000
        third order                    shell-resolved
        anisotropic                    true
        a3                             3.000000
        a5                             4.000000
        cn-shift                       1.200000
        cn-exp                         4.000000
        max-rad                        5.000000


          ...................................................
          :                      SETUP                      :
          :.................................................:
          :  # basis functions                  37          :
          :  # atomic orbitals                  37          :
          :  # shells                           23          :
          :  # electrons                        41          :
          :  max. iterations                   250          :
          :  Hamiltonian                  GFN2-xTB          :
          :  restarted?                      false          :
          :  GBSA solvation                  false          :
          :  PC potential                    false          :
          :  electronic temp.          300.0000000     K    :
          :  accuracy                    1.0000000          :
          :  -> integral cutoff          0.2500000E+02      :
          :  -> integral neglect         0.1000000E-07      :
          :  -> SCF convergence          0.1000000E-05 Eh   :
          :  -> wf. convergence          0.1000000E-03 e    :
          :  Broyden damping             0.4000000          :
          ...................................................

 iter      E             dE          RMSdq      gap      omega  full diag
   1    -23.4069639 -0.234070E+02  0.385E+00    2.09       0.0  T
   2    -23.4091447 -0.218080E-02  0.211E+00    2.78       1.0  T
   3    -23.4202815 -0.111368E-01  0.225E+00    2.14       1.0  T
   4    -23.4739919 -0.537103E-01  0.328E-01    2.16       1.0  T
   5    -23.4743648 -0.372894E-03  0.110E-01    2.15       1.0  T
   6    -23.4744117 -0.469080E-04  0.530E-02    2.16       1.0  T
   7    -23.4744142 -0.252959E-05  0.163E-02    2.16       1.5  T
   8    -23.4744146 -0.413744E-06  0.439E-03    2.16       5.7  T
   9    -23.4744147 -0.463398E-07  0.244E-03    2.16      10.2  T
  10    -23.4744147 -0.128869E-07  0.659E-04    2.16      38.0  T
  11    -23.4744147 -0.193889E-08  0.386E-04    2.16      64.7  T

   *** convergence criteria satisfied after 11 iterations ***

         #    Occupation            Energy/Eh            Energy/eV
      -------------------------------------------------------------
         1        2.0000           -0.6915828             -18.8189
       ...           ...                  ...                  ...
        15        2.0000           -0.4711664             -12.8211
        16        2.0000           -0.4653684             -12.6633
        17        2.0000           -0.4555758             -12.3968
        18        2.0000           -0.4425753             -12.0431
        19        2.0000           -0.4337461             -11.8028
        20        2.0000           -0.4012764             -10.9193
        21        1.0000           -0.3326494              -9.0518 (HOMO)
        22                         -0.2531739              -6.8892 (LUMO)
        23                          0.0330978               0.9006
        24                          0.0528023               1.4368
        25                          0.0638480               1.7374
        26                          0.0882533               2.4015
       ...                                ...                  ...
        37                          0.3661332               9.9630
      -------------------------------------------------------------
                  HL-Gap            0.0794754 Eh            2.1626 eV
             Fermi-level           -0.3299373 Eh           -8.9781 eV

 SCC (total)                   0 d,  0 h,  0 min,  0.010 sec
 SCC setup                      ...        0 min,  0.000 sec (  1.778%)
 Dispersion                     ...        0 min,  0.000 sec (  1.313%)
 classical contributions        ...        0 min,  0.000 sec (  1.967%)
 integral evaluation            ...        0 min,  0.000 sec (  4.661%)
 iterations                     ...        0 min,  0.007 sec ( 77.445%)
 molecular gradient             ...        0 min,  0.001 sec ( 10.258%)
 printout                       ...        0 min,  0.000 sec (  2.301%)

         :::::::::::::::::::::::::::::::::::::::::::::::::::::
         ::                     SUMMARY                     ::
         :::::::::::::::::::::::::::::::::::::::::::::::::::::
         :: total energy             -22.543668686816 Eh    ::
         :: gradient norm              3.719446423592 Eh/a0 ::
         :: HOMO-LUMO gap              2.162636571494 eV    ::
         ::.................................................::
         :: SCC energy               -23.474414677355 Eh    ::
         :: -> isotropic ES            0.046144500272 Eh    ::
         :: -> anisotropic ES         -0.005233792009 Eh    ::
         :: -> anisotropic XC          0.005349697501 Eh    ::
         :: -> dispersion             -0.009872458244 Eh    ::
         :: repulsion energy           0.233902867227 Eh    ::
         :: add. restraining           0.696815445899 Eh    ::
         :: total charge              -0.000000000000 e     ::
         :::::::::::::::::::::::::::::::::::::::::::::::::::::

      ----------------------------------------------------------- 
     |                   =====================                   |
     |                        A N C O P T                        |
     |                   =====================                   |
     |               Approximate Normal Coordinate               |
     |                Rational Function Optimizer                |
      ----------------------------------------------------------- 

          ...................................................
          :                      SETUP                      :
          :.................................................:
          :   optimization level            normal          :
          :   max. optcycles                   200          :
          :   ANC micro-cycles                  20          :
          :   degrees of freedom                42          :
          :.................................................:
          :   RF solver                   davidson          :
          :   write xtbopt.log                true          :
          :   linear?                        false          :
          :   energy convergence         0.5000000E-05 Eh   :
          :   grad. convergence          0.1000000E-02 Eh/α :
          :   maxmium RF displ.          1.0000000          :
          :   Hlow (freq-cutoff)         0.1000000E-01      :
          :   Hmax (freq-cutoff)         5.0000000          :
          :   S6 in model hess.         20.0000000          :
          ...................................................

generating ANC from model Hessian ...
Using Lindh-Hessian (1995)
 Shifting diagonal of input Hessian by   0.24995802337050008     
 Lowest  eigenvalues of input Hessian
    0.010000    0.149535    0.000000    0.000000    0.000000    0.000000
    0.000000    0.000000    0.253964    0.267015    0.267587    0.282445
    0.294165    0.295571    0.297849    0.299564    0.302005    0.305357
 Highest eigenvalues
    1.522382    1.636157    2.060600    2.289978    4.775566   12.614667


........................................................................
.............................. CYCLE    1 ..............................
........................................................................

 iter      E             dE          RMSdq      gap      omega  full diag
   1    -23.4744147 -0.234744E+02  0.189E-04    2.16       0.0  T
   2    -23.4744147 -0.466471E-10  0.132E-04    2.16     190.0  T
   3    -23.4744147 -0.380744E-10  0.124E-04    2.16     202.3  T
     SCC iter.                  ...        0 min,  0.002 sec
     gradient                   ...        0 min,  0.001 sec
 * total energy  :   -22.5436687 Eh     change       -0.7746017E-09 Eh
   gradient norm :     3.7194468 Eh/α   predicted     0.0000000E+00 (-100.00%)
   displ. norm   :     0.5357409 α      lambda       -0.1990238E+01
   maximum displ.:     0.5021277 α      in ANC's #42, #41, #32, ...

........................................................................
.............................. CYCLE    2 ..............................
........................................................................

 iter      E             dE          RMSdq      gap      omega  full diag
   1    -23.4361060 -0.234361E+02  0.142E+00    6.03       0.0  T
   2    -23.4584430 -0.223370E-01  0.137E+00    4.34       1.0  T
   3    -23.4747677 -0.163247E-01  0.639E-01    5.00       1.0  T
   4    -23.4749906 -0.222924E-03  0.301E-01    5.24       1.0  T
   5    -23.4759091 -0.918532E-03  0.130E-01    5.24       1.0  T
   6    -23.4761526 -0.243429E-03  0.200E-02    5.17       1.2  T
   7    -23.4761524  0.191269E-06  0.106E-02    5.17       2.4  T
   8    -23.4761535 -0.116327E-05  0.219E-03    5.17      11.4  T
   9    -23.4761535 -0.145095E-07  0.691E-04    5.17      36.2  T
  10    -23.4761536 -0.124551E-08  0.358E-04    5.17      69.9  T
     SCC iter.                  ...        0 min,  0.005 sec
     gradient                   ...        0 min,  0.001 sec
 * total energy  :   -22.9751985 Eh     change       -0.4315299E+00 Eh
   gradient norm :     2.4441500 Eh/α   predicted    -0.1280736E+01 ( 196.79%)
   displ. norm   :     0.2262060 α      lambda       -0.5120521E+00
   maximum displ.:     0.1954760 α      in ANC's #42, #41, #1, ...

........................................................................
.............................. CYCLE    3 ..............................
........................................................................

 iter      E             dE          RMSdq      gap      omega  full diag
   1    -23.4718869 -0.234719E+02  0.393E-01    3.89       0.0  T
   2    -23.4729506 -0.106366E-02  0.353E-01    4.14       1.0  T
   3    -23.4741717 -0.122115E-02  0.165E-01    4.04       1.0  T
   4    -23.4741788 -0.710844E-05  0.265E-02    4.04       1.0  T
   5    -23.4741832 -0.432852E-05  0.131E-02    4.04       1.9  T
   6    -23.4741835 -0.347019E-06  0.415E-03    4.04       6.0  T
   7    -23.4741835 -0.376163E-07  0.127E-03    4.04      19.7  T
   8    -23.4741836 -0.606609E-08  0.628E-04    4.04      39.8  T
   9    -23.4741836 -0.128730E-08  0.239E-04    4.04     104.7  T
     SCC iter.                  ...        0 min,  0.005 sec
     gradient                   ...        0 min,  0.001 sec
 * total energy  :   -23.2430163 Eh     change       -0.2678177E+00 Eh
   gradient norm :     0.1174864 Eh/α   predicted    -0.2691267E+00 (   0.49%)
   displ. norm   :     0.0827848 α      lambda       -0.4140092E-02
   maximum displ.:     0.0390420 α      in ANC's #1, #6, #13, ...

........................................................................
.............................. CYCLE    4 ..............................
........................................................................

 iter      E             dE          RMSdq      gap      omega  full diag
   1    -23.4768002 -0.234768E+02  0.950E-02    4.07       0.0  T
   2    -23.4768137 -0.134853E-04  0.606E-02    4.09       1.0  T
   3    -23.4768147 -0.105642E-05  0.364E-02    4.08       1.0  T
   4    -23.4768242 -0.950125E-05  0.500E-03    4.08       5.0  T
   5    -23.4768245 -0.241277E-06  0.226E-03    4.08      11.1  T
   6    -23.4768245 -0.356821E-08  0.472E-04    4.08      53.0  T
   7    -23.4768245 -0.410495E-09  0.223E-04    4.08     112.0  T
     SCC iter.                  ...        0 min,  0.004 sec
     gradient                   ...        0 min,  0.001 sec
 * total energy  :   -23.2459387 Eh     change       -0.2922409E-02 Eh
   gradient norm :     0.0267848 Eh/α   predicted    -0.2084234E-02 ( -28.68%)
   displ. norm   :     0.3276366 α      lambda       -0.3390472E-02
   maximum displ.:     0.3035907 α      in ANC's #1, #6, #13, ...

........................................................................
.............................. CYCLE    5 ..............................
........................................................................

 iter      E             dE          RMSdq      gap      omega  full diag
   1    -23.4768157 -0.234768E+02  0.287E-01    3.94       0.0  T
   2    -23.4768880 -0.723104E-04  0.174E-01    3.89       1.0  T
   3    -23.4768775  0.104494E-04  0.714E-02    3.92       1.0  T
   4    -23.4768991 -0.216328E-04  0.151E-02    3.89       1.7  T
   5    -23.4769022 -0.306310E-05  0.658E-03    3.90       3.8  T
   6    -23.4769023 -0.789055E-07  0.174E-03    3.90      14.4  T
   7    -23.4769023 -0.113771E-07  0.507E-04    3.90      49.3  T
   8    -23.4769023 -0.282302E-09  0.148E-04    3.90     169.1  T
     SCC iter.                  ...        0 min,  0.004 sec
     gradient                   ...        0 min,  0.001 sec
 * total energy  :   -23.2470486 Eh     change       -0.1109909E-02 Eh
   gradient norm :     0.1059937 Eh/α   predicted    -0.1877212E-02 (  69.13%)
   displ. norm   :     0.2794816 α      lambda       -0.7292601E-02
   maximum displ.:     0.1388368 α      in ANC's #1, #6, #13, ...

........................................................................
.............................. CYCLE    6 ..............................
........................................................................

 iter      E             dE          RMSdq      gap      omega  full diag
   1    -23.4835658 -0.234836E+02  0.373E-01    4.10       0.0  T
   2    -23.4837193 -0.153451E-03  0.222E-01    4.17       1.0  T
   3    -23.4836651  0.542039E-04  0.104E-01    4.12       1.0  T
   4    -23.4837557 -0.906018E-04  0.242E-02    4.15       1.0  T
   5    -23.4837640 -0.832242E-05  0.699E-03    4.15       3.6  T
   6    -23.4837641 -0.694464E-07  0.241E-03    4.15      10.4  T
   7    -23.4837641 -0.125235E-07  0.818E-04    4.15      30.6  T
   8    -23.4837641 -0.124659E-08  0.275E-04    4.15      90.9  T
     SCC iter.                  ...        0 min,  0.004 sec
     gradient                   ...        0 min,  0.001 sec
 * total energy  :   -23.2457267 Eh     change        0.1321853E-02 Eh
   gradient norm :     0.1463657 Eh/α   predicted    -0.3931119E-02 (-397.39%)
   displ. norm   :     0.1316486 α      lambda       -0.5694570E-02
   maximum displ.:     0.0470555 α      in ANC's #6, #13, #17, ...

........................................................................
.............................. CYCLE    7 ..............................
........................................................................

 iter      E             dE          RMSdq      gap      omega  full diag
   1    -23.4818643 -0.234819E+02  0.182E-01    4.06       0.0  T
   2    -23.4819179 -0.535483E-04  0.109E-01    4.02       1.0  T
   3    -23.4819118  0.611978E-05  0.592E-02    4.05       1.0  T
   4    -23.4819339 -0.221573E-04  0.132E-02    4.03       1.9  T
   5    -23.4819365 -0.255888E-05  0.381E-03    4.03       6.6  T
   6    -23.4819365 -0.275693E-07  0.129E-03    4.03      19.4  T
   7    -23.4819365 -0.230808E-08  0.445E-04    4.03      56.2  T
   8    -23.4819365 -0.378410E-09  0.147E-04    4.03     170.0  T
     SCC iter.                  ...        0 min,  0.004 sec
     gradient                   ...        0 min,  0.001 sec
 * total energy  :   -23.2489362 Eh     change       -0.3209498E-02 Eh
   gradient norm :     0.0312061 Eh/α   predicted    -0.2896632E-02 (  -9.75%)
   displ. norm   :     0.1031114 α      lambda       -0.6909005E-03
   maximum displ.:     0.0931601 α      in ANC's #1, #4, #6, ...

........................................................................
.............................. CYCLE    8 ..............................
........................................................................

 iter      E             dE          RMSdq      gap      omega  full diag
   1    -23.4807506 -0.234808E+02  0.928E-02    3.97       0.0  T
   2    -23.4807611 -0.104812E-04  0.566E-02    3.94       1.0  T
   3    -23.4807575  0.360589E-05  0.322E-02    3.96       1.0  T
   4    -23.4807651 -0.762025E-05  0.645E-03    3.95       3.9  T
   5    -23.4807656 -0.497184E-06  0.204E-03    3.95      12.3  T
   6    -23.4807656 -0.207422E-08  0.473E-04    3.95      52.9  T
   7    -23.4807656 -0.973746E-09  0.143E-04    3.95     174.4  T
     SCC iter.                  ...        0 min,  0.004 sec
     gradient                   ...        0 min,  0.001 sec
 * total energy  :   -23.2493798 Eh     change       -0.4435805E-03 Eh
   gradient norm :     0.0256006 Eh/α   predicted    -0.3491238E-03 ( -21.29%)
   displ. norm   :     0.0753546 α      lambda       -0.3501889E-03
   maximum displ.:     0.0457079 α      in ANC's #1, #4, #6, ...

........................................................................
.............................. CYCLE    9 ..............................
........................................................................

 iter      E             dE          RMSdq      gap      omega  full diag
   1    -23.4803666 -0.234804E+02  0.708E-02    3.93       0.0  T
   2    -23.4803688 -0.222457E-05  0.419E-02    3.91       1.0  T
   3    -23.4803647  0.413824E-05  0.200E-02    3.92       1.2  T
   4    -23.4803701 -0.538965E-05  0.258E-03    3.92       9.7  T
   5    -23.4803701 -0.428088E-07  0.133E-03    3.92      18.7  T
   6    -23.4803701 -0.782514E-09  0.275E-04    3.92      90.8  T
   7    -23.4803701 -0.383807E-09  0.919E-05    3.92     271.9  T
     SCC iter.                  ...        0 min,  0.004 sec
     gradient                   ...        0 min,  0.001 sec
 * total energy  :   -23.2496509 Eh     change       -0.2711112E-03 Eh
   gradient norm :     0.0336249 Eh/α   predicted    -0.1760893E-03 ( -35.05%)
   displ. norm   :     0.1094191 α      lambda       -0.5482731E-03
   maximum displ.:     0.0592412 α      in ANC's #4, #6, #1, ...

........................................................................
.............................. CYCLE   10 ..............................
........................................................................

 iter      E             dE          RMSdq      gap      omega  full diag
   1    -23.4801870 -0.234802E+02  0.104E-01    3.91       0.0  T
   2    -23.4801887 -0.172889E-05  0.607E-02    3.90       1.0  T
   3    -23.4801842  0.452673E-05  0.180E-02    3.91       1.4  T
   4    -23.4801895 -0.538584E-05  0.216E-03    3.90      11.6  T
   5    -23.4801896 -0.286287E-07  0.126E-03    3.90      19.9  T
   6    -23.4801896 -0.164814E-08  0.236E-04    3.90     105.8  T
   7    -23.4801896 -0.202729E-09  0.127E-04    3.90     196.5  T
     SCC iter.                  ...        0 min,  0.004 sec
     gradient                   ...        0 min,  0.001 sec
 * total energy  :   -23.2499579 Eh     change       -0.3069669E-03 Eh
   gradient norm :     0.0115900 Eh/α   predicted    -0.2774193E-03 (  -9.63%)
   displ. norm   :     0.0507984 α      lambda       -0.1244095E-03
   maximum displ.:     0.0323304 α      in ANC's #1, #4, #6, ...

........................................................................
.............................. CYCLE   11 ..............................
........................................................................

 iter      E             dE          RMSdq      gap      omega  full diag
   1    -23.4801761 -0.234802E+02  0.355E-02    3.88       0.0  T
   2    -23.4801766 -0.466475E-06  0.215E-02    3.88       1.2  T
   3    -23.4801759  0.735230E-06  0.820E-03    3.88       3.0  T
   4    -23.4801768 -0.919556E-06  0.155E-03    3.88      16.2  T
   5    -23.4801768 -0.186471E-07  0.759E-04    3.88      32.9  T
   6    -23.4801768 -0.319986E-09  0.111E-04    3.88     224.3  T
     SCC iter.                  ...        0 min,  0.003 sec
     gradient                   ...        0 min,  0.001 sec
 * total energy  :   -23.2500602 Eh     change       -0.1023669E-03 Eh
   gradient norm :     0.0135011 Eh/α   predicted    -0.6236578E-04 ( -39.08%)
   displ. norm   :     0.1058954 α      lambda       -0.3113822E-03
   maximum displ.:     0.0616371 α      in ANC's #4, #1, #6, ...

........................................................................
.............................. CYCLE   12 ..............................
........................................................................

 iter      E             dE          RMSdq      gap      omega  full diag
   1    -23.4810562 -0.234811E+02  0.646E-02    3.84       0.0  T
   2    -23.4810578 -0.158461E-05  0.387E-02    3.83       1.0  T
   3    -23.4810573  0.478004E-06  0.939E-03    3.83       2.7  T
   4    -23.4810579 -0.662424E-06  0.283E-03    3.83       8.8  T
   5    -23.4810580 -0.989415E-07  0.130E-03    3.83      19.2  T
   6    -23.4810580 -0.261394E-08  0.270E-04    3.83      92.7  T
   7    -23.4810580 -0.335589E-09  0.103E-04    3.83     242.7  T
     SCC iter.                  ...        0 min,  0.004 sec
     gradient                   ...        0 min,  0.001 sec
 * total energy  :   -23.2502620 Eh     change       -0.2017126E-03 Eh
   gradient norm :     0.0079020 Eh/α   predicted    -0.1574376E-03 ( -21.95%)
   displ. norm   :     0.0515996 α      lambda       -0.1146082E-03
   maximum displ.:     0.0295344 α      in ANC's #4, #1, #6, ...

........................................................................
.............................. CYCLE   13 ..............................
........................................................................

 iter      E             dE          RMSdq      gap      omega  full diag
   1    -23.4817375 -0.234817E+02  0.341E-02    3.81       0.0  T
   2    -23.4817378 -0.347213E-06  0.202E-02    3.81       1.2  T
   3    -23.4817378  0.109224E-07  0.381E-03    3.81       6.6  T
   4    -23.4817378 -0.552692E-07  0.857E-04    3.81      29.2  T
   5    -23.4817378 -0.830184E-09  0.487E-04    3.81      51.3  T
     SCC iter.                  ...        0 min,  0.003 sec
     gradient                   ...        0 min,  0.001 sec
 * total energy  :   -23.2503464 Eh     change       -0.8442166E-04 Eh
   gradient norm :     0.0054373 Eh/α   predicted    -0.5745671E-04 ( -31.94%)
   displ. norm   :     0.0520722 α      lambda       -0.1010219E-03
   maximum displ.:     0.0280436 α      in ANC's #4, #1, #13, ...

........................................................................
.............................. CYCLE   14 ..............................
........................................................................

 iter      E             dE          RMSdq      gap      omega  full diag
   1    -23.4821138 -0.234821E+02  0.383E-02    3.79       0.0  T
   2    -23.4821141 -0.288293E-06  0.226E-02    3.79       1.1  T
   3    -23.4821140  0.395822E-07  0.373E-03    3.79       6.7  T
   4    -23.4821141 -0.904382E-07  0.937E-04    3.79      26.7  T
   5    -23.4821141 -0.220838E-08  0.540E-04    3.79      46.3  T
     SCC iter.                  ...        0 min,  0.003 sec
     gradient                   ...        0 min,  0.001 sec
 * total energy  :   -23.2504141 Eh     change       -0.6768975E-04 Eh
   gradient norm :     0.0039929 Eh/α   predicted    -0.5064936E-04 ( -25.17%)
   displ. norm   :     0.0262341 α      lambda       -0.4205772E-04
   maximum displ.:     0.0126093 α      in ANC's #4, #1, #12, ...

........................................................................
.............................. CYCLE   15 ..............................
........................................................................

 iter      E             dE          RMSdq      gap      omega  full diag
   1    -23.4819606 -0.234820E+02  0.222E-02    3.78       0.0  T
   2    -23.4819607 -0.108176E-06  0.131E-02    3.78       1.9  T
   3    -23.4819607  0.295430E-07  0.228E-03    3.78      11.0  T
   4    -23.4819608 -0.486076E-07  0.519E-04    3.78      48.2  T
   5    -23.4819608 -0.123731E-08  0.289E-04    3.78      86.5  T
     SCC iter.                  ...        0 min,  0.003 sec
     gradient                   ...        0 min,  0.001 sec
 * total energy  :   -23.2504422 Eh     change       -0.2812965E-04 Eh
   gradient norm :     0.0025598 Eh/α   predicted    -0.2104201E-04 ( -25.20%)
   displ. norm   :     0.0136269 α      lambda       -0.1764943E-04
   maximum displ.:     0.0053179 α      in ANC's #1, #4, #3, ...

........................................................................
.............................. CYCLE   16 ..............................
........................................................................

 iter      E             dE          RMSdq      gap      omega  full diag
   1    -23.4816416 -0.234816E+02  0.126E-02    3.78       0.0  T
   2    -23.4816416 -0.527972E-07  0.746E-03    3.78       3.4  T
   3    -23.4816416  0.243433E-07  0.170E-03    3.78      14.7  T
   4    -23.4816416 -0.317682E-07  0.359E-04    3.78      69.6  T
   5    -23.4816416 -0.175098E-08  0.178E-04    3.78     140.3  T
     SCC iter.                  ...        0 min,  0.003 sec
     gradient                   ...        0 min,  0.001 sec
 * total energy  :   -23.2504544 Eh     change       -0.1217021E-04 Eh
   gradient norm :     0.0027842 Eh/α   predicted    -0.8825207E-05 ( -27.49%)
   displ. norm   :     0.0111147 α      lambda       -0.1150468E-04
   maximum displ.:     0.0051699 α      in ANC's #6, #17, #3, ...

........................................................................
.............................. CYCLE   17 ..............................
........................................................................

 iter      E             dE          RMSdq      gap      omega  full diag
   1    -23.4814124 -0.234814E+02  0.105E-02    3.78       0.0  T
   2    -23.4814124 -0.157116E-07  0.616E-03    3.78       4.1  T
   3    -23.4814124  0.421671E-08  0.783E-04    3.78      31.9  T
   4    -23.4814124 -0.673798E-08  0.211E-04    3.78     118.4  T
     SCC iter.                  ...        0 min,  0.003 sec
     gradient                   ...        0 min,  0.001 sec
 * total energy  :   -23.2504628 Eh     change       -0.8467417E-05 Eh
   gradient norm :     0.0019385 Eh/α   predicted    -0.5754075E-05 ( -32.04%)
   displ. norm   :     0.0287196 α      lambda       -0.1425268E-04
   maximum displ.:     0.0134992 α      in ANC's #3, #1, #5, ...

........................................................................
.............................. CYCLE   18 ..............................
........................................................................

 iter      E             dE          RMSdq      gap      omega  full diag
   1    -23.4810491 -0.234810E+02  0.213E-02    3.77       0.0  T
   2    -23.4810494 -0.291115E-06  0.124E-02    3.76       2.0  T
   3    -23.4810492  0.268405E-06  0.565E-03    3.77       4.4  T
   4    -23.4810495 -0.366412E-06  0.107E-03    3.77      23.3  T
   5    -23.4810495 -0.115088E-07  0.346E-04    3.77      72.3  T
   6    -23.4810495 -0.124345E-09  0.914E-05    3.77     273.6  T
     SCC iter.                  ...        0 min,  0.003 sec
     gradient                   ...        0 min,  0.001 sec
 * total energy  :   -23.2504748 Eh     change       -0.1193902E-04 Eh
   gradient norm :     0.0047099 Eh/α   predicted    -0.7129094E-05 ( -40.29%)
   displ. norm   :     0.0134998 α      lambda       -0.1263486E-04
   maximum displ.:     0.0076925 α      in ANC's #3, #5, #6, ...

........................................................................
.............................. CYCLE   19 ..............................
........................................................................

 iter      E             dE          RMSdq      gap      omega  full diag
   1    -23.4812240 -0.234812E+02  0.102E-02    3.76       0.0  T
   2    -23.4812241 -0.833109E-07  0.550E-03    3.76       4.5  T
   3    -23.4812241  0.105054E-08  0.210E-03    3.76      11.9  T
   4    -23.4812241 -0.915350E-08  0.359E-04    3.76      69.6  T
   5    -23.4812241 -0.114783E-08  0.189E-04    3.76     132.4  T
     SCC iter.                  ...        0 min,  0.003 sec
     gradient                   ...        0 min,  0.001 sec
 * total energy  :   -23.2504840 Eh     change       -0.9218343E-05 Eh
   gradient norm :     0.0019552 Eh/α   predicted    -0.6319692E-05 ( -31.44%)
   displ. norm   :     0.0503455 α      lambda       -0.2160612E-04
   maximum displ.:     0.0279111 α      in ANC's #3, #1, #5, ...

........................................................................
.............................. CYCLE   20 ..............................
........................................................................

 iter      E             dE          RMSdq      gap      omega  full diag
   1    -23.4817871 -0.234818E+02  0.298E-02    3.74       0.0  T
   2    -23.4817886 -0.150193E-05  0.162E-02    3.73       1.5  T
   3    -23.4817886  0.738785E-07  0.834E-03    3.74       3.0  T
   4    -23.4817888 -0.253063E-06  0.252E-03    3.73       9.9  T
   5    -23.4817889 -0.851376E-07  0.501E-04    3.74      49.9  T
   6    -23.4817889 -0.371784E-09  0.213E-04    3.74     117.6  T
     SCC iter.                  ...        0 min,  0.003 sec
     gradient                   ...        0 min,  0.001 sec
 * total energy  :   -23.2505008 Eh     change       -0.1680524E-04 Eh
   gradient norm :     0.0023011 Eh/α   predicted    -0.1081419E-04 ( -35.65%)
   displ. norm   :     0.0103988 α      lambda       -0.7071684E-05
   maximum displ.:     0.0060859 α      in ANC's #3, #5, #1, ...
 * RMSD in coord.:     0.2613330 α      energy gain  -0.7068321E+00 Eh

generating ANC from model Hessian ...
Using Lindh-Hessian (1995)
 Shifting diagonal of input Hessian by    7.7395964679567823E-003
 Lowest  eigenvalues of input Hessian
    0.000000    0.000000    0.000000    0.000000    0.000000    0.000000
    0.010000    0.012226    0.016117    0.021554    0.025176    0.037859
    0.050116    0.052650    0.053066    0.055331    0.060313    0.062457
 Highest eigenvalues
    1.284441    1.330722    1.352341    1.464998    4.902949   12.122089


........................................................................
.............................. CYCLE   21 ..............................
........................................................................

 iter      E             dE          RMSdq      gap      omega  full diag
   1    -23.4818509 -0.234819E+02  0.607E-03    3.73       0.0  T
   2    -23.4818509 -0.348407E-07  0.345E-03    3.73       7.2  T
   3    -23.4818509  0.728268E-08  0.142E-03    3.73      17.6  T
   4    -23.4818509 -0.108815E-07  0.349E-04    3.73      71.6  T
   5    -23.4818509 -0.206575E-08  0.806E-05    3.73     310.3  T
     SCC iter.                  ...        0 min,  0.003 sec
     gradient                   ...        0 min,  0.001 sec
 * total energy  :   -23.2505072 Eh     change       -0.6392997E-05 Eh
   gradient norm :     0.0019547 Eh/α   predicted     0.0000000E+00 (-100.00%)
   displ. norm   :     0.0700994 α      lambda       -0.3795866E-04
   maximum displ.:     0.0530772 α      in ANC's #1, #3, #2, ...

........................................................................
.............................. CYCLE   22 ..............................
........................................................................

 iter      E             dE          RMSdq      gap      omega  full diag
   1    -23.4815639 -0.234816E+02  0.398E-02    3.73       0.0  T
   2    -23.4815641 -0.223941E-06  0.242E-02    3.74       1.0  T
   3    -23.4815641  0.327260E-07  0.310E-03    3.73       8.1  T
   4    -23.4815642 -0.999672E-07  0.133E-03    3.74      18.8  T
   5    -23.4815642 -0.103229E-07  0.708E-04    3.74      35.3  T
   6    -23.4815642 -0.153440E-08  0.128E-04    3.74     194.8  T
     SCC iter.                  ...        0 min,  0.003 sec
     gradient                   ...        0 min,  0.001 sec
 * total energy  :   -23.2505425 Eh     change       -0.3526869E-04 Eh
   gradient norm :     0.0031061 Eh/α   predicted    -0.1902151E-04 ( -46.07%)
   displ. norm   :     0.0441520 α      lambda       -0.1879376E-04
   maximum displ.:     0.0372855 α      in ANC's #1, #3, #2, ...

........................................................................
.............................. CYCLE   23 ..............................
........................................................................

 iter      E             dE          RMSdq      gap      omega  full diag
   1    -23.4814435 -0.234814E+02  0.219E-02    3.73       0.0  T
   2    -23.4814436 -0.792722E-07  0.135E-02    3.73       1.9  T
   3    -23.4814435  0.125761E-06  0.318E-03    3.73       7.9  T
   4    -23.4814436 -0.163459E-06  0.686E-04    3.73      36.4  T
   5    -23.4814436 -0.237747E-08  0.388E-04    3.73      64.4  T
     SCC iter.                  ...        0 min,  0.003 sec
     gradient                   ...        0 min,  0.001 sec
 * total energy  :   -23.2505559 Eh     change       -0.1343620E-04 Eh
   gradient norm :     0.0035532 Eh/α   predicted    -0.9414650E-05 ( -29.93%)
   displ. norm   :     0.0429813 α      lambda       -0.1428811E-04
   maximum displ.:     0.0364951 α      in ANC's #1, #3, #2, ...

........................................................................
.............................. CYCLE   24 ..............................
........................................................................

 iter      E             dE          RMSdq      gap      omega  full diag
   1    -23.4815283 -0.234815E+02  0.205E-02    3.73       0.0  T
   2    -23.4815285 -0.118936E-06  0.126E-02    3.73       2.0  T
   3    -23.4815283  0.153540E-06  0.357E-03    3.73       7.0  T
   4    -23.4815285 -0.192940E-06  0.813E-04    3.73      30.7  T
   5    -23.4815285 -0.628497E-08  0.373E-04    3.73      67.1  T
     SCC iter.                  ...        0 min,  0.003 sec
     gradient                   ...        0 min,  0.001 sec
 * total energy  :   -23.2505656 Eh     change       -0.9660034E-05 Eh
   gradient norm :     0.0029983 Eh/α   predicted    -0.7157588E-05 ( -25.91%)
   displ. norm   :     0.0337295 α      lambda       -0.9216856E-05
   maximum displ.:     0.0309488 α      in ANC's #1, #2, #3, ...

........................................................................
.............................. CYCLE   25 ..............................
........................................................................

 iter      E             dE          RMSdq      gap      omega  full diag
   1    -23.4817007 -0.234817E+02  0.142E-02    3.72       0.0  T
   2    -23.4817008 -0.785751E-07  0.839E-03    3.72       3.0  T
   3    -23.4817007  0.112534E-07  0.205E-03    3.72      12.2  T
   4    -23.4817008 -0.225853E-07  0.521E-04    3.72      48.0  T
   5    -23.4817008 -0.309952E-08  0.248E-04    3.72     100.6  T
     SCC iter.                  ...        0 min,  0.003 sec
     gradient                   ...        0 min,  0.001 sec
 * total energy  :   -23.2505724 Eh     change       -0.6802644E-05 Eh
   gradient norm :     0.0007346 Eh/α   predicted    -0.4613375E-05 ( -32.18%)
   displ. norm   :     0.0421579 α      lambda       -0.4892177E-05
   maximum displ.:     0.0400959 α      in ANC's #1, #3, #4, ...

........................................................................
.............................. CYCLE   26 ..............................
........................................................................

 iter      E             dE          RMSdq      gap      omega  full diag
   1    -23.4817577 -0.234818E+02  0.200E-02    3.72       0.0  T
   2    -23.4817579 -0.144898E-06  0.120E-02    3.71       2.1  T
   3    -23.4817578  0.512031E-07  0.298E-03    3.72       8.4  T
   4    -23.4817579 -0.746955E-07  0.793E-04    3.71      31.5  T
   5    -23.4817579 -0.801694E-08  0.328E-04    3.71      76.3  T
     SCC iter.                  ...        0 min,  0.003 sec
     gradient                   ...        0 min,  0.001 sec
 * total energy  :   -23.2505774 Eh     change       -0.5054911E-05 Eh
   gradient norm :     0.0006017 Eh/α   predicted    -0.2448780E-05 ( -51.56%)
   displ. norm   :     0.0248224 α      lambda       -0.2107553E-05
   maximum displ.:     0.0232068 α      in ANC's #1, #2, #3, ...

........................................................................
.............................. CYCLE   27 ..............................
........................................................................

 iter      E             dE          RMSdq      gap      omega  full diag
   1    -23.4817221 -0.234817E+02  0.123E-02    3.71       0.0  T
   2    -23.4817222 -0.233539E-07  0.755E-03    3.72       3.3  T
   3    -23.4817221  0.228517E-07  0.144E-03    3.71      17.4  T
   4    -23.4817222 -0.322860E-07  0.391E-04    3.72      63.9  T
   5    -23.4817222 -0.983249E-09  0.205E-04    3.72     121.8  T
     SCC iter.                  ...        0 min,  0.003 sec
     gradient                   ...        0 min,  0.001 sec
 * total energy  :   -23.2505794 Eh     change       -0.1983155E-05 Eh
   gradient norm :     0.0006616 Eh/α   predicted    -0.1054244E-05 ( -46.84%)
   displ. norm   :     0.0200190 α      lambda       -0.1336114E-05
   maximum displ.:     0.0182980 α      in ANC's #1, #2, #6, ...

   *** GEOMETRY OPTIMIZATION CONVERGED AFTER 27 ITERATIONS ***

------------------------------------------------------------------------
 total energy gain   :        -0.7069107 Eh     -443.5932 kcal/mol
 total RMSD          :         0.2802857 a0        0.1483 Å
 total power (kW/mol):       -68.7405117 (step)********** (real)
------------------------------------------------------------------------

 ANCopt (total)                0 d,  0 h,  0 min,  0.149 sec
 optimizer setup                ...        0 min,  0.000 sec (  0.081%)
 model hessian                  ...        0 min,  0.012 sec (  7.893%)
 ANC generation                 ...        0 min,  0.001 sec (  0.439%)
 coordinate transformation      ...        0 min,  0.000 sec (  0.085%)
 single point calculation       ...        0 min,  0.129 sec ( 86.120%)
 optimization log               ...        0 min,  0.002 sec (  1.586%)
 hessian update                 ...        0 min,  0.000 sec (  0.214%)
 rational function              ...        0 min,  0.003 sec (  2.312%)

================
 final structure:
================
16
 xtb: 6.6.1 (8d0f1dd)
O            2.48476937625397        0.04826656061817        0.98333469571984
O            0.79611606030590       -0.61007771356923        0.76106701149879
C            0.55020605961684       -0.51494274742571       -0.63690538492996
C           -0.80052760594971       -1.21966922841687       -0.47636042818904
C           -0.91564811179864       -0.35256230174652        0.76356427846746
C           -0.90936006350690        1.07067283829568        0.26582160144029
C            0.15052554899196        0.95018362376674       -0.85432737227252
H            2.65165783743661       -0.33329224467737        1.84529879499444
H            1.36098060857043       -0.91055919737883       -1.24158521883008
H           -0.70068754960250       -2.27788523132858       -0.25475509020269
H           -1.54833268358604       -1.04538516543349       -1.24931947927113
H           -1.37251465277272       -0.64994720834941        1.69370672580527
H           -0.61238464913942        1.76907650941697        1.04505520998848
H           -1.89129674158376        1.35729754565932       -0.11311127603788
H            1.00582078540630        1.59750669262151       -0.68010266145484
H           -0.24903421864248        1.12149726794747       -1.85141140672632

 Bond Distances (Angstroems)
 ---------------------------
O1-H8=0.9573         O2-C3=1.4226         O2-C5=1.7310         C3-O2=1.4226         C3-C4=1.5320         C3-C7=1.5341         
C3-H9=1.0861         C4-C3=1.5320         C4-C5=1.5174         C4-H10=1.0858        C4-H11=1.0895        C5-O2=1.7310         
C5-C4=1.5174         C5-C6=1.5078         C5-H12=1.0781        C6-C5=1.5078         C6-C7=1.5468         C6-H13=1.0877        
C6-H14=1.0908        C7-C3=1.5341         C7-C6=1.5468         C7-H15=1.0867        C7-H16=1.0877        H8-O1=0.9573         
H9-C3=1.0861         H10-C4=1.0858        H11-C4=1.0895        H12-C5=1.0781        H13-C6=1.0877        H14-C6=1.0908        
H15-C7=1.0867        H16-C7=1.0877        
 C  H  Rav=1.0866 sigma=0.0036  Rmin=1.0781  Rmax=1.0908     8
 C  C  Rav=1.5276 sigma=0.0136  Rmin=1.5078  Rmax=1.5468     5
 O  H  Rav=0.9573 sigma=0.0000  Rmin=0.9573  Rmax=0.9573     1
 O  C  Rav=1.5768 sigma=0.1542  Rmin=1.4226  Rmax=1.7310     2

 selected bond angles (degree)
 --------------------
C5-O2-C3= 79.66                C4-C3-O2= 91.07                C7-C3-O2=104.37                C7-C3-C4=102.97                
H9-C3-O2=113.19                H9-C3-C4=123.30                H9-C3-C7=117.61                C5-C4-C3= 83.66                
H10-C4-C3=112.87               H10-C4-C5=113.40               H11-C4-C3=117.21               H11-C4-C5=115.86               
H11-C4-H10=111.33              C4-C5-O2= 80.72                C6-C5-O2= 97.81                C6-C5-C4=105.62                
H12-C5-O2=112.29               H12-C5-C4=125.42               H12-C5-C6=123.16               C7-C6-C5= 99.69                
H13-C6-C5=111.76               H13-C6-C7=112.44               H14-C6-C5=111.04               H14-C6-C7=112.69               
H14-C6-H13=109.02              C6-C7-C3= 98.64                H15-C7-C3=109.94               H15-C7-C6=112.14               
H16-C7-C3=112.09               H16-C7-C6=113.57               H16-C7-H15=110.01              

 selected dihedral angles (degree)
 ---------------------------------
C4-C3-O2-C5=324.45            C7-C3-O2-C5= 68.13            H9-C3-O2-C5=197.20            C5-C4-C3-O2= 41.03            
C5-C4-C3-C7=296.02            C5-C4-C3-H9=159.94            H10-C4-C3-O2=288.28           H10-C4-C3-C7=183.26           
H10-C4-C3-H9= 47.18           H11-C4-C3-O2=156.91           H11-C4-C3-C7= 51.90           H11-C4-C3-H9=275.82           
C4-C5-O2-C3= 36.49            C6-C5-O2-C3=291.83            H12-C5-O2-C3=161.07           O2-C5-C4-C3=326.87            
O2-C5-C4-H10= 79.08           O2-C5-C4-H11=209.65           C6-C5-C4-C3= 62.45            C6-C5-C4-H10=174.66           
C6-C5-C4-H11=305.22           H12-C5-C4-C3=216.05           H12-C5-C4-H10=328.26          H12-C5-C4-H11= 98.83          
C7-C6-C5-O2= 43.10            C7-C6-C5-C4=320.60            C7-C6-C5-H12=166.25           H13-C6-C5-O2=284.08           
H13-C6-C5-C4=201.58           H13-C6-C5-H12= 47.23          H14-C6-C5-O2=162.11           H14-C6-C5-C4= 79.61           
H14-C6-C5-H12=285.26          C6-C7-C3-O2=310.76            C6-C7-C3-C4= 45.28            C6-C7-C3-H9=184.41            
H15-C7-C3-O2= 68.18           H15-C7-C3-C4=162.70           H15-C7-C3-H9=301.84           H16-C7-C3-O2=190.88           
H16-C7-C3-C4=285.40           H16-C7-C3-H9= 64.53           C3-C7-C6-C5=356.27            C3-C7-C6-H13=114.79           
C3-C7-C6-H14=238.49           H15-C7-C6-C5=240.53           H15-C7-C6-H13=359.05          H15-C7-C6-H14=122.75          
H16-C7-C6-C5=115.04           H16-C7-C6-H13=233.56          H16-C7-C6-H14=357.26          

 CMA Distance (Angstroems)
 ---------------------------
R(CMA):  2.8708
           -------------------------------------------------
          |                Final Singlepoint                |
           -------------------------------------------------

          ...................................................
          :                      SETUP                      :
          :.................................................:
          :  # basis functions                  37          :
          :  # atomic orbitals                  37          :
          :  # shells                           23          :
          :  # electrons                        41          :
          :  max. iterations                   250          :
          :  Hamiltonian                  GFN2-xTB          :
          :  restarted?                      false          :
          :  GBSA solvation                  false          :
          :  PC potential                    false          :
          :  electronic temp.          300.0000000     K    :
          :  accuracy                    1.0000000          :
          :  -> integral cutoff          0.2500000E+02      :
          :  -> integral neglect         0.1000000E-07      :
          :  -> SCF convergence          0.1000000E-05 Eh   :
          :  -> wf. convergence          0.1000000E-03 e    :
          :  Broyden damping             0.4000000          :
          ...................................................

 iter      E             dE          RMSdq      gap      omega  full diag
   1    -23.4817222 -0.234817E+02  0.297E-05    3.72       0.0  T
   2    -23.4817222 -0.300560E-11  0.155E-05    3.72    1616.5  T
   3    -23.4817222 -0.202505E-12  0.949E-06    3.72    2633.3  T

   *** convergence criteria satisfied after 3 iterations ***

         #    Occupation            Energy/Eh            Energy/eV
      -------------------------------------------------------------
         1        2.0000           -0.7063595             -19.2210
       ...           ...                  ...                  ...
        15        2.0000           -0.4753081             -12.9338
        16        2.0000           -0.4702505             -12.7962
        17        2.0000           -0.4584332             -12.4746
        18        2.0000           -0.4448643             -12.1054
        19        2.0000           -0.4337843             -11.8039
        20        2.0000           -0.3936047             -10.7105
        21        1.0000           -0.3326050              -9.0506 (HOMO)
        22                         -0.1960788              -5.3356 (LUMO)
        23                          0.0068715               0.1870
        24                          0.0240153               0.6535
        25                          0.0540078               1.4696
        26                          0.0744247               2.0252
       ...                                ...                  ...
        37                          0.3375289               9.1846
      -------------------------------------------------------------
                  HL-Gap            0.1365262 Eh            3.7151 eV
             Fermi-level           -0.3137234 Eh           -8.5368 eV

 SCC (total)                   0 d,  0 h,  0 min,  0.003 sec
 SCC setup                      ...        0 min,  0.000 sec (  2.068%)
 Dispersion                     ...        0 min,  0.000 sec (  1.730%)
 classical contributions        ...        0 min,  0.000 sec (  0.325%)
 integral evaluation            ...        0 min,  0.000 sec (  8.207%)
 iterations                     ...        0 min,  0.002 sec ( 58.334%)
 molecular gradient             ...        0 min,  0.001 sec ( 24.541%)
 printout                       ...        0 min,  0.000 sec (  4.200%)

         :::::::::::::::::::::::::::::::::::::::::::::::::::::
         ::                     SUMMARY                     ::
         :::::::::::::::::::::::::::::::::::::::::::::::::::::
         :: total energy             -23.250579397549 Eh    ::
         :: gradient norm              0.000661324078 Eh/a0 ::
         :: HOMO-LUMO gap              3.715067878972 eV    ::
         ::.................................................::
         :: SCC energy               -23.481722167884 Eh    ::
         :: -> isotropic ES            0.052511660188 Eh    ::
         :: -> anisotropic ES         -0.003913475807 Eh    ::
         :: -> anisotropic XC          0.005710850354 Eh    ::
         :: -> dispersion             -0.009709273310 Eh    ::
         :: repulsion energy           0.230946448732 Eh    ::
         :: add. restraining           0.000170831645 Eh    ::
         :: total charge              -0.000000000000 e     ::
         :::::::::::::::::::::::::::::::::::::::::::::::::::::

           -------------------------------------------------
          |                Property Printout                |
           -------------------------------------------------

    * Orbital Energies and Occupations

         #    Occupation            Energy/Eh            Energy/eV
      -------------------------------------------------------------
         1        2.0000           -0.7063595             -19.2210
       ...           ...                  ...                  ...
         9        2.0000           -0.5482848             -14.9196
        10        2.0000           -0.5386395             -14.6571
        11        2.0000           -0.5321437             -14.4804
        12        2.0000           -0.4877769             -13.2731
        13        2.0000           -0.4794453             -13.0464
        14        2.0000           -0.4782916             -13.0150
        15        2.0000           -0.4753081             -12.9338
        16        2.0000           -0.4702505             -12.7962
        17        2.0000           -0.4584332             -12.4746
        18        2.0000           -0.4448643             -12.1054
        19        2.0000           -0.4337843             -11.8039
        20        2.0000           -0.3936047             -10.7105
        21        1.0000           -0.3326050              -9.0506 (HOMO)
        22                         -0.1960788              -5.3356 (LUMO)
        23                          0.0068715               0.1870
        24                          0.0240153               0.6535
        25                          0.0540078               1.4696
        26                          0.0744247               2.0252
        27                          0.0957514               2.6055
        28                          0.1206971               3.2843
        29                          0.1271617               3.4602
        30                          0.1523081               4.1445
        31                          0.1835185               4.9938
        32                          0.1988153               5.4100
       ...                                ...                  ...
        37                          0.3375289               9.1846
      -------------------------------------------------------------
                  HL-Gap            0.1365262 Eh            3.7151 eV
             Fermi-level           -0.3137234 Eh           -8.5368 eV

     #   Z          covCN         q      C6AA      α(0)
     1   8 O        0.981    -0.505    23.826     6.547
     2   8 O        1.706    -0.234    17.873     5.708
     3   6 C        4.179     0.127    18.437     6.098
     4   6 C        3.882    -0.065    21.696     6.622
     5   6 C        3.965     0.065    19.419     6.261
     6   6 C        3.850    -0.058    21.587     6.609
     7   6 C        3.853    -0.069    21.782     6.638
     8   1 H        0.806     0.270     0.820     1.422
     9   1 H        0.925     0.055     2.262     2.352
    10   1 H        0.925     0.060     2.193     2.316
    11   1 H        0.925     0.053     2.285     2.364
    12   1 H        0.926     0.067     2.122     2.278
    13   1 H        0.925     0.065     2.141     2.288
    14   1 H        0.924     0.052     2.292     2.368
    15   1 H        0.925     0.076     2.018     2.221
    16   1 H        0.925     0.040     2.443     2.444

 Mol. C6AA /au·bohr⁶  :       1979.658906
 Mol. C8AA /au·bohr⁸  :      42849.793946
 Mol. α(0) /au        :         64.536941


Wiberg/Mayer (AO) data.
largest (>0.10) Wiberg bond orders for each atom

 ---------------------------------------------------------------------------
     #   Z sym  total        # sym  WBO       # sym  WBO       # sym  WBO
 ---------------------------------------------------------------------------
     1   8 O    1.578 --     8 H    0.925     2 O    0.454     5 C    0.127
     2   8 O    2.245 --     3 C    0.977     5 C    0.723     1 O    0.454
     3   6 C    3.939 --     7 C    0.984     2 O    0.977     4 C    0.968
                             9 H    0.964
     4   6 C    3.983 --     5 C    1.001    10 H    0.976     3 C    0.968
                            11 H    0.962
     5   6 C    3.901 --     6 C    1.026     4 C    1.001    12 H    0.969
                             2 O    0.723     1 O    0.127
     6   6 C    3.993 --     5 C    1.026     7 C    0.996    13 H    0.974
                            14 H    0.963
     7   6 C    3.992 --     6 C    0.996     3 C    0.984    16 H    0.980
                            15 H    0.976
     8   1 H    0.927 --     1 O    0.925
     9   1 H    0.997 --     3 C    0.964
    10   1 H    0.996 --     4 C    0.976
    11   1 H    0.997 --     4 C    0.962
    12   1 H    0.996 --     5 C    0.969
    13   1 H    0.996 --     6 C    0.974
    14   1 H    0.997 --     6 C    0.963
    15   1 H    0.994 --     7 C    0.976
    16   1 H    0.998 --     7 C    0.980
 ---------------------------------------------------------------------------

Topologies differ in total number of bonds
Writing topology from bond orders to xtbtopo.mol

molecular dipole:
                 x           y           z       tot (Debye)
 q only:       -1.576      -0.079      -0.443
   full:       -1.564      -0.215      -0.239       4.059
molecular quadrupole (traceless):
                xx          xy          yy          xz          yz          zz
 q only:       -5.462      -0.731       2.264      -1.858      -0.094       3.198
  q+dip:       -5.977      -1.544       1.825      -0.552      -0.452       4.153
   full:       -5.511      -1.367       1.400      -0.540      -0.537       4.111

           -------------------------------------------------
          |                Geometry Summary                 |
           -------------------------------------------------

      molecular mass/u    :      101.1239561
   center of mass at/Å    :        0.2769605      -0.0905015       0.1565228
  moments of inertia/u·Å² :        0.1183125E+03   0.2121267E+03   0.2325724E+03
rotational constants/cm⁻¹ :        0.1424839E+00   0.7946964E-01   0.7248336E-01

 * 13 selected distances

     #   Z          #   Z                                           value/Å
     2   8 O        3   6 C                                       1.4226207
     3   6 C        4   6 C                                       1.5319582
     4   6 C        5   6 C                                       1.5174126
     5   6 C        6   6 C                                       1.5077752
     3   6 C        7   6 C                                       1.5341488 (max)
     3   6 C        9   1 H                                       1.0860505
     4   6 C       10   1 H                                       1.0857708
     4   6 C       11   1 H                                       1.0895197
     5   6 C       12   1 H                                       1.0781141 (min)
     6   6 C       13   1 H                                       1.0877349
     6   6 C       14   1 H                                       1.0908454
     7   6 C       15   1 H                                       1.0866976
     7   6 C       16   1 H                                       1.0877376

 * 3 distinct bonds (by element types)

   Z      Z             #   av. dist./Å        max./Å        min./Å
   1 H    6 C           8     1.0865588     1.0908454     1.0781141
   6 C    6 C           4     1.5228237     1.5341488     1.5077752
   6 C    8 O           1     1.4226207     1.4226207     1.4226207


optimized geometry written to: xtbopt.xyz


           -------------------------------------------------
          | TOTAL ENERGY              -23.250579397549 Eh   |
          | GRADIENT NORM               0.000661324078 Eh/α |
          | HOMO-LUMO GAP               3.715067878972 eV   |
           -------------------------------------------------

------------------------------------------------------------------------
 * finished run on 2025/05/23 at 13:10:40.992     
------------------------------------------------------------------------
 total:
 * wall-time:     0 d,  0 h,  0 min,  0.170 sec
 *  cpu-time:     0 d,  0 h,  0 min,  2.528 sec
 * ratio c/w:    14.889 speedup
 SCF:
 * wall-time:     0 d,  0 h,  0 min,  0.010 sec
 *  cpu-time:     0 d,  0 h,  0 min,  0.137 sec
 * ratio c/w:    14.191 speedup
 ANC optimizer:
 * wall-time:     0 d,  0 h,  0 min,  0.154 sec
 *  cpu-time:     0 d,  0 h,  0 min,  2.302 sec
 * ratio c/w:    14.961 speedup

