      -----------------------------------------------------------      
     |                   =====================                   |     
     |                           x T B                           |     
     |                   =====================                   |     
     |                         S. Grimme                         |     
     |          Mulliken Center for Theoretical Chemistry        |     
     |                    University of Bonn                     |     
      -----------------------------------------------------------      

   * xtb version 6.6.1 (8d0f1dd) compiled by 'conda@1efc2f54142f' on 2023-08-01

   xtb is free software: you can redistribute it and/or modify it under
   the terms of the GNU Lesser General Public License as published by
   the Free Software Foundation, either version 3 of the License, or
   (at your option) any later version.
   
   xtb is distributed in the hope that it will be useful,
   but WITHOUT ANY WARRANTY; without even the implied warranty of
   MERCHANTABILITY or FITNESS FOR A PARTICULAR PURPOSE.  See the
   GNU Lesser General Public License for more details.
   
   Cite this work as:
   * C. Bannwarth, E. Caldeweyher, S. Ehlert, A. Hansen, P. Pracht,
     J. Seibert, S. Spicher, S. Grimme, WIREs Comput. Mol. Sci., 2020, 11,
     e01493. DOI: 10.1002/wcms.1493
   
   for GFN2-xTB:
   * C. Bannwarth, S. Ehlert and S. Grimme., J. Chem. Theory Comput., 2019,
     15, 1652-1671. DOI: 10.1021/acs.jctc.8b01176
   for GFN1-xTB:
   * S. Grimme, C. Bannwarth, P. Shushkov, J. Chem. Theory Comput., 2017,
     13, 1989-2009. DOI: 10.1021/acs.jctc.7b00118
   for GFN0-xTB:
   * P. Pracht, E. Caldeweyher, S. Ehlert, S. Grimme, ChemRxiv, 2019, preprint.
     DOI: 10.26434/chemrxiv.8326202.v1
   for GFN-FF:
   * S. Spicher and S. Grimme, Angew. Chem. Int. Ed., 2020, 59, 15665-15673.
     DOI: 10.1002/anie.202004239
   
   for ALPB and GBSA implicit solvation:
   * S. Ehlert, M. Stahn, S. Spicher, S. Grimme, J. Chem. Theory Comput.,
     2021, 17, 4250-4261. DOI: 10.1021/acs.jctc.1c00471
   
   for DFT-D4:
   * E. Caldeweyher, C. Bannwarth and S. Grimme, J. Chem. Phys., 2017,
     147, 034112. DOI: 10.1063/1.4993215
   * E. Caldeweyher, S. Ehlert, A. Hansen, H. Neugebauer, S. Spicher,
     C. Bannwarth and S. Grimme, J. Chem. Phys., 2019, 150, 154122.
     DOI: 10.1063/1.5090222
   * E. Caldeweyher, J.-M. Mewes, S. Ehlert and S. Grimme, Phys. Chem. Chem. Phys.
     2020, 22, 8499-8512. DOI: 10.1039/D0CP00502A
   
   for sTDA-xTB:
   * S. Grimme and C. Bannwarth, J. Chem. Phys., 2016, 145, 054103.
     DOI: 10.1063/1.4959605
   
   in the mass-spec context:
   * V. Asgeirsson, C. Bauer and S. Grimme, Chem. Sci., 2017, 8, 4879.
     DOI: 10.1039/c7sc00601b
   * J. Koopman and S. Grimme, ACS Omega 2019, 4, 12, 15120-15133.
     DOI: 10.1021/acsomega.9b02011
   
   for metadynamics refer to:
   * S. Grimme, J. Chem. Theory Comput., 2019, 155, 2847-2862
     DOI: 10.1021/acs.jctc.9b00143
   
   for SPH calculations refer to:
   * S. Spicher and S. Grimme, J. Chem. Theory Comput., 2021, 17, 1701-1714
     DOI: 10.1021/acs.jctc.0c01306
   
   with help from (in alphabetical order)
   P. Atkinson, C. Bannwarth, F. Bohle, G. Brandenburg, E. Caldeweyher
   M. Checinski, S. Dohm, S. Ehlert, S. Ehrlich, I. Gerasimov, C. Hölzer
   A. Katbashev, J. Koopman, C. Lavigne, S. Lehtola, F. März, M. Müller,
   F. Musil, H. Neugebauer, J. Pisarek, C. Plett, P. Pracht, F. Pultar,
   J. Seibert, P. Shushkov, S. Spicher, M. Stahn, M. Steiner, T. Strunk,
   J. Stückrath, T. Rose, and J. Unsleber
   
 * started run on 2025/05/23 at 13:10:38.697     

           -------------------------------------------------
          |                Calculation Setup                |
           -------------------------------------------------

          program call               : /gpfs/fs1/home/copan/code/autode-practice/.pixi/envs/default/bin/xtb path_opt-1_xtb.xyz --chrg 0 --uhf 1 --opt --input xcontrol_path_opt-1_xtb
          hostname                   : csed-0021
          coordinate file            : path_opt-1_xtb.xyz
          omp threads                :                     8

   ID    Z sym.   atoms
    1    8 O      1, 2
    2    6 C      3-7
    3    1 H      8-16
constraining bond 2 5 to    3.0368000 Å, actual value:    3.0367860 Å
constraining bond 1 2 to    1.4159000 Å, actual value:    1.4159213 Å

           -------------------------------------------------
          |                 G F N 2 - x T B                 |
           -------------------------------------------------

        Reference                      10.1021/acs.jctc.8b01176
      * Hamiltonian:
        H0-scaling (s, p, d)           1.850000    2.230000    2.230000
        zeta-weighting                 0.500000
      * Dispersion:
        s8                             2.700000
        a1                             0.520000
        a2                             5.000000
        s9                             5.000000
      * Repulsion:
        kExp                           1.500000    1.000000
        rExp                           1.000000
      * Coulomb:
        alpha                          2.000000
        third order                    shell-resolved
        anisotropic                    true
        a3                             3.000000
        a5                             4.000000
        cn-shift                       1.200000
        cn-exp                         4.000000
        max-rad                        5.000000


          ...................................................
          :                      SETUP                      :
          :.................................................:
          :  # basis functions                  37          :
          :  # atomic orbitals                  37          :
          :  # shells                           23          :
          :  # electrons                        41          :
          :  max. iterations                   250          :
          :  Hamiltonian                  GFN2-xTB          :
          :  restarted?                      false          :
          :  GBSA solvation                  false          :
          :  PC potential                    false          :
          :  electronic temp.          300.0000000     K    :
          :  accuracy                    1.0000000          :
          :  -> integral cutoff          0.2500000E+02      :
          :  -> integral neglect         0.1000000E-07      :
          :  -> SCF convergence          0.1000000E-05 Eh   :
          :  -> wf. convergence          0.1000000E-03 e    :
          :  Broyden damping             0.4000000          :
          ...................................................

 iter      E             dE          RMSdq      gap      omega  full diag
   1    -23.4715204 -0.234715E+02  0.342E+00    4.95       0.0  T
   2    -23.4929365 -0.214161E-01  0.198E+00    4.83       1.0  T
   3    -23.4935623 -0.625810E-03  0.656E-01    4.42       1.0  T
   4    -23.4940252 -0.462857E-03  0.117E-01    4.18       1.0  T
   5    -23.4940767 -0.514956E-04  0.593E-02    4.22       1.0  T
   6    -23.4940797 -0.301692E-05  0.143E-02    4.26       1.7  T
   7    -23.4940801 -0.408057E-06  0.605E-03    4.26       4.1  T
   8    -23.4940802 -0.477374E-07  0.178E-03    4.26      14.0  T
   9    -23.4940802 -0.245250E-08  0.433E-04    4.26      57.7  T
  10    -23.4940802 -0.379412E-09  0.132E-04    4.26     188.7  T

   *** convergence criteria satisfied after 10 iterations ***

         #    Occupation            Energy/Eh            Energy/eV
      -------------------------------------------------------------
         1        2.0000           -0.7190212             -19.5656
       ...           ...                  ...                  ...
        15        2.0000           -0.4597386             -12.5101
        16        2.0000           -0.4521555             -12.3038
        17        2.0000           -0.4467749             -12.1574
        18        2.0000           -0.4449608             -12.1080
        19        2.0000           -0.4394028             -11.9568
        20        2.0000           -0.4148232             -11.2879
        21        1.0000           -0.2906693              -7.9095 (HOMO)
        22                         -0.1341734              -3.6510 (LUMO)
        23                          0.0446839               1.2159
        24                          0.0694517               1.8899
        25                          0.0888765               2.4185
        26                          0.0921842               2.5085
       ...                                ...                  ...
        37                          0.3728996              10.1471
      -------------------------------------------------------------
                  HL-Gap            0.1564959 Eh            4.2585 eV
             Fermi-level           -0.2825838 Eh           -7.6895 eV

 SCC (total)                   0 d,  0 h,  0 min,  0.009 sec
 SCC setup                      ...        0 min,  0.000 sec (  2.287%)
 Dispersion                     ...        0 min,  0.000 sec (  1.390%)
 classical contributions        ...        0 min,  0.000 sec (  2.092%)
 integral evaluation            ...        0 min,  0.000 sec (  4.948%)
 iterations                     ...        0 min,  0.007 sec ( 75.846%)
 molecular gradient             ...        0 min,  0.001 sec ( 10.864%)
 printout                       ...        0 min,  0.000 sec (  2.265%)

         :::::::::::::::::::::::::::::::::::::::::::::::::::::
         ::                     SUMMARY                     ::
         :::::::::::::::::::::::::::::::::::::::::::::::::::::
         :: total energy             -23.274214317347 Eh    ::
         :: gradient norm              0.027747939689 Eh/a0 ::
         :: HOMO-LUMO gap              4.258469975465 eV    ::
         ::.................................................::
         :: SCC energy               -23.494080154870 Eh    ::
         :: -> isotropic ES            0.029601962154 Eh    ::
         :: -> anisotropic ES         -0.002345971010 Eh    ::
         :: -> anisotropic XC          0.000268822047 Eh    ::
         :: -> dispersion             -0.009914883776 Eh    ::
         :: repulsion energy           0.219840693803 Eh    ::
         :: add. restraining           0.000000004622 Eh    ::
         :: total charge              -0.000000000000 e     ::
         :::::::::::::::::::::::::::::::::::::::::::::::::::::

      ----------------------------------------------------------- 
     |                   =====================                   |
     |                        A N C O P T                        |
     |                   =====================                   |
     |               Approximate Normal Coordinate               |
     |                Rational Function Optimizer                |
      ----------------------------------------------------------- 

          ...................................................
          :                      SETUP                      :
          :.................................................:
          :   optimization level            normal          :
          :   max. optcycles                   200          :
          :   ANC micro-cycles                  20          :
          :   degrees of freedom                42          :
          :.................................................:
          :   RF solver                   davidson          :
          :   write xtbopt.log                true          :
          :   linear?                        false          :
          :   energy convergence         0.5000000E-05 Eh   :
          :   grad. convergence          0.1000000E-02 Eh/α :
          :   maxmium RF displ.          1.0000000          :
          :   Hlow (freq-cutoff)         0.1000000E-01      :
          :   Hmax (freq-cutoff)         5.0000000          :
          :   S6 in model hess.         20.0000000          :
          ...................................................

generating ANC from model Hessian ...
Using Lindh-Hessian (1995)
 Shifting diagonal of input Hessian by    4.4785126575580744E-003
 Lowest  eigenvalues of input Hessian
    0.000000    0.000000    0.000000    0.000000    0.000000    0.000000
    0.010000    0.011066    0.016213    0.021229    0.026674    0.034592
    0.048572    0.050878    0.053274    0.057286    0.057733    0.060572
 Highest eigenvalues
    1.228687    1.255903    1.330610    1.365335    7.299767   10.445244


........................................................................
.............................. CYCLE    1 ..............................
........................................................................

 iter      E             dE          RMSdq      gap      omega  full diag
   1    -23.4940802 -0.234941E+02  0.514E-05    4.26       0.0  T
   2    -23.4940802 -0.251532E-11  0.284E-05    4.26     878.8  T
   3    -23.4940802 -0.490274E-12  0.680E-06    4.26    3674.3  T
     SCC iter.                  ...        0 min,  0.002 sec
     gradient                   ...        0 min,  0.001 sec
 * total energy  :   -23.2742143 Eh     change       -0.4871481E-10 Eh
   gradient norm :     0.0277481 Eh/α   predicted     0.0000000E+00 (-100.00%)
   displ. norm   :     0.1649356 α      lambda       -0.2663003E-02
   maximum displ.:     0.0786376 α      in ANC's #16, #4, #11, ...

........................................................................
.............................. CYCLE    2 ..............................
........................................................................

 iter      E             dE          RMSdq      gap      omega  full diag
   1    -23.5062051 -0.235062E+02  0.137E-01    4.14       0.0  T
   2    -23.5062134 -0.823956E-05  0.787E-02    4.13       1.0  T
   3    -23.5062141 -0.747382E-06  0.111E-02    4.14       2.3  T
   4    -23.5062142 -0.814519E-07  0.325E-03    4.14       7.7  T
   5    -23.5062142 -0.201157E-07  0.147E-03    4.14      17.0  T
   6    -23.5062142 -0.817884E-08  0.694E-04    4.14      36.0  T
   7    -23.5062142 -0.267481E-08  0.261E-04    4.14      95.7  T
     SCC iter.                  ...        0 min,  0.003 sec
     gradient                   ...        0 min,  0.001 sec
 * total energy  :   -23.2758312 Eh     change       -0.1616880E-02 Eh
   gradient norm :     0.0106506 Eh/α   predicted    -0.1367723E-02 ( -15.41%)
   displ. norm   :     0.0959871 α      lambda       -0.3374775E-03
   maximum displ.:     0.0604496 α      in ANC's #4, #1, #3, ...

........................................................................
.............................. CYCLE    3 ..............................
........................................................................

 iter      E             dE          RMSdq      gap      omega  full diag
   1    -23.5098525 -0.235099E+02  0.541E-02    4.13       0.0  T
   2    -23.5098539 -0.143626E-05  0.316E-02    4.13       1.0  T
   3    -23.5098541 -0.148869E-06  0.499E-03    4.13       5.0  T
   4    -23.5098541 -0.245363E-07  0.146E-03    4.13      17.1  T
   5    -23.5098541 -0.382872E-08  0.771E-04    4.13      32.4  T
   6    -23.5098541 -0.125418E-08  0.259E-04    4.13      96.4  T
     SCC iter.                  ...        0 min,  0.003 sec
     gradient                   ...        0 min,  0.001 sec
 * total energy  :   -23.2760286 Eh     change       -0.1974476E-03 Eh
   gradient norm :     0.0032188 Eh/α   predicted    -0.1702922E-03 ( -13.75%)
   displ. norm   :     0.0674708 α      lambda       -0.6372211E-04
   maximum displ.:     0.0473322 α      in ANC's #4, #1, #3, ...

........................................................................
.............................. CYCLE    4 ..............................
........................................................................

 iter      E             dE          RMSdq      gap      omega  full diag
   1    -23.5098530 -0.235099E+02  0.358E-02    4.12       0.0  T
   2    -23.5098535 -0.495971E-06  0.219E-02    4.12       1.1  T
   3    -23.5098536 -0.104451E-06  0.331E-03    4.12       7.6  T
   4    -23.5098536 -0.400078E-07  0.141E-03    4.12      17.7  T
   5    -23.5098537 -0.603767E-08  0.757E-04    4.12      33.0  T
   6    -23.5098537 -0.169791E-08  0.199E-04    4.12     125.9  T
     SCC iter.                  ...        0 min,  0.003 sec
     gradient                   ...        0 min,  0.001 sec
 * total energy  :   -23.2760754 Eh     change       -0.4679582E-04 Eh
   gradient norm :     0.0047101 Eh/α   predicted    -0.3200682E-04 ( -31.60%)
   displ. norm   :     0.1051319 α      lambda       -0.7083297E-04
   maximum displ.:     0.0769531 α      in ANC's #4, #1, #3, ...

........................................................................
.............................. CYCLE    5 ..............................
........................................................................

 iter      E             dE          RMSdq      gap      omega  full diag
   1    -23.5091490 -0.235091E+02  0.572E-02    4.14       0.0  T
   2    -23.5091500 -0.938677E-06  0.355E-02    4.14       1.0  T
   3    -23.5091503 -0.286472E-06  0.457E-03    4.14       5.5  T
   4    -23.5091504 -0.109502E-06  0.221E-03    4.14      11.3  T
   5    -23.5091504 -0.100806E-07  0.109E-03    4.14      23.0  T
   6    -23.5091504 -0.343401E-08  0.299E-04    4.14      83.5  T
   7    -23.5091504 -0.361393E-09  0.194E-04    4.14     128.8  T
     SCC iter.                  ...        0 min,  0.004 sec
     gradient                   ...        0 min,  0.001 sec
 * total energy  :   -23.2761156 Eh     change       -0.4012518E-04 Eh
   gradient norm :     0.0068775 Eh/α   predicted    -0.3580811E-04 ( -10.76%)
   displ. norm   :     0.0655621 α      lambda       -0.3623791E-04
   maximum displ.:     0.0402715 α      in ANC's #1, #4, #3, ...

........................................................................
.............................. CYCLE    6 ..............................
........................................................................

 iter      E             dE          RMSdq      gap      omega  full diag
   1    -23.5089727 -0.235090E+02  0.383E-02    4.12       0.0  T
   2    -23.5089732 -0.458916E-06  0.239E-02    4.12       1.0  T
   3    -23.5089733 -0.124879E-06  0.319E-03    4.12       7.8  T
   4    -23.5089734 -0.613366E-07  0.141E-03    4.12      17.7  T
   5    -23.5089734 -0.372510E-08  0.680E-04    4.12      36.8  T
   6    -23.5089734 -0.124154E-08  0.205E-04    4.12     122.0  T
     SCC iter.                  ...        0 min,  0.003 sec
     gradient                   ...        0 min,  0.001 sec
 * total energy  :   -23.2761373 Eh     change       -0.2174778E-04 Eh
   gradient norm :     0.0069732 Eh/α   predicted    -0.1819540E-04 ( -16.33%)
   displ. norm   :     0.0515960 α      lambda       -0.3344321E-04
   maximum displ.:     0.0330057 α      in ANC's #3, #4, #2, ...

........................................................................
.............................. CYCLE    7 ..............................
........................................................................

 iter      E             dE          RMSdq      gap      omega  full diag
   1    -23.5093571 -0.235094E+02  0.271E-02    4.14       0.0  T
   2    -23.5093572 -0.175144E-06  0.167E-02    4.14       1.5  T
   3    -23.5093573 -0.395435E-07  0.207E-03    4.14      12.1  T
   4    -23.5093573 -0.291626E-07  0.922E-04    4.14      27.1  T
   5    -23.5093573 -0.765876E-09  0.280E-04    4.14      89.4  T
     SCC iter.                  ...        0 min,  0.003 sec
     gradient                   ...        0 min,  0.001 sec
 * total energy  :   -23.2761588 Eh     change       -0.2147883E-04 Eh
   gradient norm :     0.0025684 Eh/α   predicted    -0.1676762E-04 ( -21.93%)
   displ. norm   :     0.0744842 α      lambda       -0.2256164E-04
   maximum displ.:     0.0547188 α      in ANC's #3, #4, #1, ...

........................................................................
.............................. CYCLE    8 ..............................
........................................................................

 iter      E             dE          RMSdq      gap      omega  full diag
   1    -23.5094426 -0.235094E+02  0.416E-02    4.14       0.0  T
   2    -23.5094431 -0.495212E-06  0.261E-02    4.14       1.0  T
   3    -23.5094433 -0.175515E-06  0.329E-03    4.14       7.6  T
   4    -23.5094433 -0.684379E-07  0.152E-03    4.14      16.5  T
   5    -23.5094433 -0.267880E-08  0.441E-04    4.14      56.7  T
   6    -23.5094433 -0.673776E-09  0.198E-04    4.14     126.3  T
     SCC iter.                  ...        0 min,  0.003 sec
     gradient                   ...        0 min,  0.001 sec
 * total energy  :   -23.2761716 Eh     change       -0.1284647E-04 Eh
   gradient norm :     0.0030928 Eh/α   predicted    -0.1134415E-04 ( -11.69%)
   displ. norm   :     0.0345668 α      lambda       -0.1471936E-04
   maximum displ.:     0.0308626 α      in ANC's #3, #5, #1, ...

........................................................................
.............................. CYCLE    9 ..............................
........................................................................

 iter      E             dE          RMSdq      gap      omega  full diag
   1    -23.5099146 -0.235099E+02  0.144E-02    4.14       0.0  T
   2    -23.5099147 -0.893175E-07  0.883E-03    4.14       2.8  T
   3    -23.5099147 -0.190344E-07  0.134E-03    4.14      18.7  T
   4    -23.5099147 -0.694811E-08  0.554E-04    4.14      45.1  T
   5    -23.5099147 -0.587029E-09  0.184E-04    4.14     136.2  T
     SCC iter.                  ...        0 min,  0.003 sec
     gradient                   ...        0 min,  0.001 sec
 * total energy  :   -23.2761819 Eh     change       -0.1021898E-04 Eh
   gradient norm :     0.0024524 Eh/α   predicted    -0.7367262E-05 ( -27.91%)
   displ. norm   :     0.0543767 α      lambda       -0.1313643E-04
   maximum displ.:     0.0468498 α      in ANC's #3, #5, #4, ...

........................................................................
.............................. CYCLE   10 ..............................
........................................................................

 iter      E             dE          RMSdq      gap      omega  full diag
   1    -23.5098378 -0.235098E+02  0.267E-02    4.14       0.0  T
   2    -23.5098380 -0.217060E-06  0.166E-02    4.14       1.5  T
   3    -23.5098380 -0.577428E-07  0.215E-03    4.14      11.6  T
   4    -23.5098381 -0.287553E-07  0.935E-04    4.14      26.8  T
   5    -23.5098381 -0.104042E-08  0.296E-04    4.14      84.4  T
     SCC iter.                  ...        0 min,  0.003 sec
     gradient                   ...        0 min,  0.001 sec
 * total energy  :   -23.2761911 Eh     change       -0.9200777E-05 Eh
   gradient norm :     0.0023020 Eh/α   predicted    -0.6586565E-05 ( -28.41%)
   displ. norm   :     0.0426900 α      lambda       -0.1167969E-04
   maximum displ.:     0.0305350 α      in ANC's #3, #2, #5, ...

........................................................................
.............................. CYCLE   11 ..............................
........................................................................

 iter      E             dE          RMSdq      gap      omega  full diag
   1    -23.5097844 -0.235098E+02  0.199E-02    4.14       0.0  T
   2    -23.5097845 -0.128398E-06  0.122E-02    4.14       2.1  T
   3    -23.5097845 -0.300310E-07  0.167E-03    4.14      15.0  T
   4    -23.5097845 -0.142293E-07  0.720E-04    4.14      34.7  T
   5    -23.5097845 -0.835438E-09  0.275E-04    4.14      91.0  T
     SCC iter.                  ...        0 min,  0.003 sec
     gradient                   ...        0 min,  0.001 sec
 * total energy  :   -23.2761983 Eh     change       -0.7215605E-05 Eh
   gradient norm :     0.0009039 Eh/α   predicted    -0.5849002E-05 ( -18.94%)
   displ. norm   :     0.0742064 α      lambda       -0.7956005E-05
   maximum displ.:     0.0469600 α      in ANC's #3, #2, #4, ...

........................................................................
.............................. CYCLE   12 ..............................
........................................................................

 iter      E             dE          RMSdq      gap      omega  full diag
   1    -23.5092273 -0.235092E+02  0.396E-02    4.14       0.0  T
   2    -23.5092277 -0.432642E-06  0.245E-02    4.14       1.0  T
   3    -23.5092278 -0.926823E-07  0.338E-03    4.14       7.4  T
   4    -23.5092279 -0.921078E-07  0.135E-03    4.14      18.5  T
   5    -23.5092279 -0.151019E-08  0.382E-04    4.14      65.4  T
   6    -23.5092279 -0.451276E-09  0.142E-04    4.14     175.6  T
     SCC iter.                  ...        0 min,  0.003 sec
     gradient                   ...        0 min,  0.001 sec
 * total energy  :   -23.2762019 Eh     change       -0.3625360E-05 Eh
   gradient norm :     0.0035262 Eh/α   predicted    -0.3988865E-05 (  10.03%)
   displ. norm   :     0.0320458 α      lambda       -0.1334075E-04
   maximum displ.:     0.0225443 α      in ANC's #2, #1, #3, ...

........................................................................
.............................. CYCLE   13 ..............................
........................................................................

 iter      E             dE          RMSdq      gap      omega  full diag
   1    -23.5094419 -0.235094E+02  0.112E-02    4.14       0.0  T
   2    -23.5094420 -0.484571E-07  0.673E-03    4.14       3.7  T
   3    -23.5094420 -0.980359E-08  0.104E-03    4.14      24.0  T
   4    -23.5094420 -0.390999E-08  0.449E-04    4.14      55.6  T
   5    -23.5094420 -0.367297E-09  0.217E-04    4.14     115.4  T
     SCC iter.                  ...        0 min,  0.003 sec
     gradient                   ...        0 min,  0.001 sec
 * total energy  :   -23.2762117 Eh     change       -0.9764077E-05 Eh
   gradient norm :     0.0026083 Eh/α   predicted    -0.6676949E-05 ( -31.62%)
   displ. norm   :     0.0589009 α      lambda       -0.1746784E-04
   maximum displ.:     0.0465143 α      in ANC's #2, #4, #1, ...

........................................................................
.............................. CYCLE   14 ..............................
........................................................................

 iter      E             dE          RMSdq      gap      omega  full diag
   1    -23.5096821 -0.235097E+02  0.226E-02    4.14       0.0  T
   2    -23.5096823 -0.159027E-06  0.138E-02    4.14       1.8  T
   3    -23.5096823 -0.155456E-07  0.207E-03    4.14      12.1  T
   4    -23.5096823 -0.329629E-07  0.751E-04    4.14      33.3  T
   5    -23.5096823 -0.402572E-09  0.247E-04    4.14     101.0  T
     SCC iter.                  ...        0 min,  0.003 sec
     gradient                   ...        0 min,  0.001 sec
 * total energy  :   -23.2762239 Eh     change       -0.1224149E-04 Eh
   gradient norm :     0.0023315 Eh/α   predicted    -0.8766014E-05 ( -28.39%)
   displ. norm   :     0.1021621 α      lambda       -0.1566303E-04
   maximum displ.:     0.0792815 α      in ANC's #2, #4, #1, ...

........................................................................
.............................. CYCLE   15 ..............................
........................................................................

 iter      E             dE          RMSdq      gap      omega  full diag
   1    -23.5095026 -0.235095E+02  0.420E-02    4.15       0.0  T
   2    -23.5095030 -0.429853E-06  0.257E-02    4.14       1.0  T
   3    -23.5095031 -0.664981E-07  0.325E-03    4.15       7.7  T
   4    -23.5095032 -0.848401E-07  0.124E-03    4.15      20.1  T
   5    -23.5095032 -0.810580E-09  0.388E-04    4.15      64.5  T
   6    -23.5095032 -0.266898E-09  0.113E-04    4.15     221.8  T
     SCC iter.                  ...        0 min,  0.003 sec
     gradient                   ...        0 min,  0.001 sec
 * total energy  :   -23.2762322 Eh     change       -0.8299491E-05 Eh
   gradient norm :     0.0026725 Eh/α   predicted    -0.7912729E-05 (  -4.66%)
   displ. norm   :     0.0125777 α      lambda       -0.6540154E-05
   maximum displ.:     0.0086205 α      in ANC's #3, #2, #17, ...

........................................................................
.............................. CYCLE   16 ..............................
........................................................................

 iter      E             dE          RMSdq      gap      omega  full diag
   1    -23.5098615 -0.235099E+02  0.753E-03    4.15       0.0  T
   2    -23.5098615 -0.241641E-07  0.454E-03    4.15       5.5  T
   3    -23.5098615 -0.304055E-08  0.787E-04    4.15      31.7  T
   4    -23.5098615 -0.406271E-08  0.325E-04    4.15      77.0  T
     SCC iter.                  ...        0 min,  0.002 sec
     gradient                   ...        0 min,  0.001 sec
 * total energy  :   -23.2762360 Eh     change       -0.3821221E-05 Eh
   gradient norm :     0.0009264 Eh/α   predicted    -0.3271000E-05 ( -14.40%)
   displ. norm   :     0.0586275 α      lambda       -0.4879180E-05
   maximum displ.:     0.0429909 α      in ANC's #2, #4, #5, ...

   *** GEOMETRY OPTIMIZATION CONVERGED AFTER 16 ITERATIONS ***

------------------------------------------------------------------------
 total energy gain   :        -0.0020217 Eh       -1.2686 kcal/mol
 total RMSD          :         0.1713084 a0        0.0907 Å
 total power (kW/mol):        -0.3317497 (step)  -65.7340 (real)
------------------------------------------------------------------------

 ANCopt (total)                0 d,  0 h,  0 min,  0.081 sec
 optimizer setup                ...        0 min,  0.000 sec (  0.140%)
 model hessian                  ...        0 min,  0.005 sec (  6.530%)
 ANC generation                 ...        0 min,  0.000 sec (  0.428%)
 coordinate transformation      ...        0 min,  0.000 sec (  0.116%)
 single point calculation       ...        0 min,  0.070 sec ( 86.886%)
 optimization log               ...        0 min,  0.001 sec (  1.758%)
 hessian update                 ...        0 min,  0.000 sec (  0.240%)
 rational function              ...        0 min,  0.002 sec (  2.618%)

================
 final structure:
================
16
 xtb: 6.6.1 (8d0f1dd)
O            2.22091361030868       -1.18223643447712        1.00930202102915
O            1.52744066343752       -0.00207260428128        0.64523502477400
C            0.68725886898984       -0.24343065374896       -0.46435698408008
C           -0.47006576115771       -1.18261911093449       -0.09764264598021
C           -1.49195852655091       -0.27014899093754        0.45708923069676
C           -1.16317679509489        1.15225863828416        0.21545577030562
C            0.01687840184203        1.10056269911192       -0.76072135483897
H            3.14347435640048       -0.89461096567310        1.05120974730199
H            1.28930252769829       -0.61988010856643       -1.30307870419020
H           -0.13995247624940       -1.94244070598501        0.61690970494489
H           -0.82296548282325       -1.71364591652352       -0.99274218241732
H           -2.30932752296099       -0.59429656361723        1.07037927889897
H           -0.86086479379534        1.64802489166553        1.14843452477198
H           -2.00895053476531        1.72260254320513       -0.18260698583110
H            0.71728599769779        1.92142986103173       -0.62117020376093
H           -0.33500253297682        1.10071342144622       -1.79170624162454

 Bond Distances (Angstroems)
 ---------------------------
O1-O2=1.4164         O1-H8=0.9673         O2-O1=1.4164         O2-C3=1.4126         C3-O2=1.4126         C3-C4=1.5349         
C3-C7=1.5309         C3-H9=1.0989         C4-C3=1.5349         C4-C5=1.4780         C4-H10=1.0940        C4-H11=1.0990        
C5-C4=1.4780         C5-C6=1.4798         C5-H12=1.0720        C6-C5=1.4798         C6-C7=1.5324         C6-H13=1.0989        
C6-H14=1.0950        C7-C3=1.5309         C7-C6=1.5324         C7-H15=1.0881        C7-H16=1.0894        H8-O1=0.9673         
H9-C3=1.0989         H10-C4=1.0940        H11-C4=1.0990        H12-C5=1.0720        H13-C6=1.0989        H14-C6=1.0950        
H15-C7=1.0881        H16-C7=1.0894        
 C  H  Rav=1.0919 sigma=0.0085  Rmin=1.0720  Rmax=1.0990     8
 C  C  Rav=1.5112 sigma=0.0264  Rmin=1.4780  Rmax=1.5349     5
 O  H  Rav=0.9673 sigma=0.0000  Rmin=0.9673  Rmax=0.9673     1
 O  C  Rav=1.4126 sigma=0.0000  Rmin=1.4126  Rmax=1.4126     1
 O  O  Rav=1.4164 sigma=0.0000  Rmin=1.4164  Rmax=1.4164     1

 selected bond angles (degree)
 --------------------
H8-O1-O2=103.32                C3-O2-O1=110.53                C4-C3-O2=111.43                C7-C3-O2=105.22                
C7-C3-C4=104.67                H9-C3-O2=109.40                H9-C3-C4=112.69                H9-C3-C7=113.14                
C5-C4-C3=103.49                H10-C4-C3=110.70               H10-C4-C5=113.09               H11-C4-C3=110.07               
H11-C4-C5=112.46               H11-C4-H10=107.05              C6-C5-C4=112.24                H12-C5-C4=123.72               
H12-C5-C6=123.60               C7-C6-C5=104.05                H13-C6-C5=110.86               H13-C6-C7=110.13               
H14-C6-C5=112.86               H14-C6-C7=112.38               H14-C6-H13=106.63              C6-C7-C3=104.09                
H15-C7-C3=110.83               H15-C7-C6=112.87               H16-C7-C3=108.95               H16-C7-C6=110.74               
H16-C7-H15=109.22              

 selected dihedral angles (degree)
 ---------------------------------
C3-O2-O1-H8=128.83            C4-C3-O2-O1= 67.74            C7-C3-O2-O1=180.62            H9-C3-O2-O1=302.45            
C5-C4-C3-O2= 85.29            C5-C4-C3-C7=332.07            C5-C4-C3-H9=208.73            H10-C4-C3-O2=323.84           
H10-C4-C3-C7=210.62           H10-C4-C3-H9= 87.27           H11-C4-C3-O2=205.68           H11-C4-C3-C7= 92.46           
H11-C4-C3-H9=329.11           C6-C5-C4-C3= 11.18            C6-C5-C4-H10=131.01           C6-C5-C4-H11=252.43           
H12-C5-C4-C3=198.48           H12-C5-C4-H10=318.31          H12-C5-C4-H11= 79.73          C7-C6-C5-C4= 10.02            
C7-C6-C5-H12=182.73           H13-C6-C5-C4=251.66           H13-C6-C5-H12= 64.37          H14-C6-C5-C4=132.13           
H14-C6-C5-H12=304.84          C6-C7-C3-O2=276.88            C6-C7-C3-C4= 34.43            C6-C7-C3-H9=157.50            
H15-C7-C3-O2= 38.49           H15-C7-C3-C4=156.05           H15-C7-C3-H9=279.11           H16-C7-C3-O2=158.69           
H16-C7-C3-C4=276.25           H16-C7-C3-H9= 39.31           C3-C7-C6-C5=332.86            C3-C7-C6-H13= 91.73           
C3-C7-C6-H14=210.45           H15-C7-C6-C5=212.61           H15-C7-C6-H13=331.47          H15-C7-C6-H14= 90.20          
H16-C7-C6-C5= 89.81           H16-C7-C6-H13=208.67          H16-C7-C6-H14=327.39          
           -------------------------------------------------
          |                Final Singlepoint                |
           -------------------------------------------------

          ...................................................
          :                      SETUP                      :
          :.................................................:
          :  # basis functions                  37          :
          :  # atomic orbitals                  37          :
          :  # shells                           23          :
          :  # electrons                        41          :
          :  max. iterations                   250          :
          :  Hamiltonian                  GFN2-xTB          :
          :  restarted?                      false          :
          :  GBSA solvation                  false          :
          :  PC potential                    false          :
          :  electronic temp.          300.0000000     K    :
          :  accuracy                    1.0000000          :
          :  -> integral cutoff          0.2500000E+02      :
          :  -> integral neglect         0.1000000E-07      :
          :  -> SCF convergence          0.1000000E-05 Eh   :
          :  -> wf. convergence          0.1000000E-03 e    :
          :  Broyden damping             0.4000000          :
          ...................................................

 iter      E             dE          RMSdq      gap      omega  full diag
   1    -23.5098615 -0.235099E+02  0.170E-04    4.15       0.0  T
   2    -23.5098615 -0.783338E-10  0.126E-04    4.15     198.5  T
   3    -23.5098615 -0.969642E-10  0.291E-05    4.15     859.2  T

   *** convergence criteria satisfied after 3 iterations ***

         #    Occupation            Energy/Eh            Energy/eV
      -------------------------------------------------------------
         1        2.0000           -0.7163364             -19.4925
       ...           ...                  ...                  ...
        15        2.0000           -0.4574617             -12.4482
        16        2.0000           -0.4506064             -12.2616
        17        2.0000           -0.4462244             -12.1424
        18        2.0000           -0.4442741             -12.0893
        19        2.0000           -0.4411664             -12.0047
        20        2.0000           -0.4062661             -11.0551
        21        1.0000           -0.2883746              -7.8471 (HOMO)
        22                         -0.1359739              -3.7000 (LUMO)
        23                          0.0548743               1.4932
        24                          0.0716243               1.9490
        25                          0.1013892               2.7589
        26                          0.1086995               2.9579
       ...                                ...                  ...
        37                          0.3969979              10.8029
      -------------------------------------------------------------
                  HL-Gap            0.1524008 Eh            4.1470 eV
             Fermi-level           -0.2797473 Eh           -7.6123 eV

 SCC (total)                   0 d,  0 h,  0 min,  0.003 sec
 SCC setup                      ...        0 min,  0.000 sec (  2.288%)
 Dispersion                     ...        0 min,  0.000 sec (  1.901%)
 classical contributions        ...        0 min,  0.000 sec (  0.371%)
 integral evaluation            ...        0 min,  0.000 sec (  9.041%)
 iterations                     ...        0 min,  0.002 sec ( 56.282%)
 molecular gradient             ...        0 min,  0.001 sec ( 25.629%)
 printout                       ...        0 min,  0.000 sec (  3.597%)

         :::::::::::::::::::::::::::::::::::::::::::::::::::::
         ::                     SUMMARY                     ::
         :::::::::::::::::::::::::::::::::::::::::::::::::::::
         :: total energy             -23.276236026705 Eh    ::
         :: gradient norm              0.000930154797 Eh/a0 ::
         :: HOMO-LUMO gap              4.147035771714 eV    ::
         ::.................................................::
         :: SCC energy               -23.509861491654 Eh    ::
         :: -> isotropic ES            0.030012615141 Eh    ::
         :: -> anisotropic ES         -0.003400813157 Eh    ::
         :: -> anisotropic XC         -0.000606951850 Eh    ::
         :: -> dispersion             -0.009861757978 Eh    ::
         :: repulsion energy           0.233597512867 Eh    ::
         :: add. restraining           0.000002593742 Eh    ::
         :: total charge              -0.000000000000 e     ::
         :::::::::::::::::::::::::::::::::::::::::::::::::::::

           -------------------------------------------------
          |                Property Printout                |
           -------------------------------------------------

    * Orbital Energies and Occupations

         #    Occupation            Energy/Eh            Energy/eV
      -------------------------------------------------------------
         1        2.0000           -0.7163364             -19.4925
       ...           ...                  ...                  ...
         9        2.0000           -0.5449059             -14.8276
        10        2.0000           -0.5390760             -14.6690
        11        2.0000           -0.5213298             -14.1861
        12        2.0000           -0.5050782             -13.7439
        13        2.0000           -0.4938836             -13.4393
        14        2.0000           -0.4671072             -12.7106
        15        2.0000           -0.4574617             -12.4482
        16        2.0000           -0.4506064             -12.2616
        17        2.0000           -0.4462244             -12.1424
        18        2.0000           -0.4442741             -12.0893
        19        2.0000           -0.4411664             -12.0047
        20        2.0000           -0.4062661             -11.0551
        21        1.0000           -0.2883746              -7.8471 (HOMO)
        22                         -0.1359739              -3.7000 (LUMO)
        23                          0.0548743               1.4932
        24                          0.0716243               1.9490
        25                          0.1013892               2.7589
        26                          0.1086995               2.9579
        27                          0.1195924               3.2543
        28                          0.1296030               3.5267
        29                          0.1451825               3.9506
        30                          0.1599727               4.3531
        31                          0.1852460               5.0408
        32                          0.2150737               5.8525
       ...                                ...                  ...
        37                          0.3969979              10.8029
      -------------------------------------------------------------
                  HL-Gap            0.1524008 Eh            4.1470 eV
             Fermi-level           -0.2797473 Eh           -7.6123 eV

     #   Z          covCN         q      C6AA      α(0)
     1   8 O        1.741    -0.327    19.455     5.956
     2   8 O        1.785    -0.212    17.500     5.649
     3   6 C        3.763     0.125    18.584     6.145
     4   6 C        3.819    -0.061    21.654     6.622
     5   6 C        2.931    -0.074    29.852     8.960
     6   6 C        3.821    -0.052    21.496     6.598
     7   6 C        3.835    -0.065    21.717     6.630
     8   1 H        0.805     0.313     0.684     1.299
     9   1 H        0.923     0.019     2.741     2.589
    10   1 H        0.924     0.067     2.118     2.276
    11   1 H        0.923     0.044     2.401     2.423
    12   1 H        0.926     0.028     2.622     2.532
    13   1 H        0.923     0.057     2.229     2.335
    14   1 H        0.924     0.044     2.399     2.422
    15   1 H        0.925     0.049     2.331     2.388
    16   1 H        0.925     0.044     2.393     2.419

 Mol. C6AA /au·bohr⁶  :       2063.208739
 Mol. C8AA /au·bohr⁸  :      44802.234380
 Mol. α(0) /au        :         67.243431


Wiberg/Mayer (AO) data.
largest (>0.10) Wiberg bond orders for each atom

 ---------------------------------------------------------------------------
     #   Z sym  total        # sym  WBO       # sym  WBO       # sym  WBO
 ---------------------------------------------------------------------------
     1   8 O    1.916 --     2 O    0.974     8 H    0.895
     2   8 O    2.011 --     1 O    0.974     3 C    0.970
     3   6 C    3.940 --     4 C    0.981     7 C    0.979     2 O    0.970
                             9 H    0.964
     4   6 C    3.996 --     5 C    1.075     3 C    0.981    10 H    0.949
                            11 H    0.939
     5   6 C    3.286 --     6 C    1.076     4 C    1.075    12 H    0.976
     6   6 C    3.998 --     5 C    1.076     7 C    1.002    14 H    0.954
                            13 H    0.937
     7   6 C    3.995 --     6 C    1.002     3 C    0.979    16 H    0.977
                            15 H    0.977
     8   1 H    0.902 --     1 O    0.895
     9   1 H    1.000 --     3 C    0.964
    10   1 H    0.995 --     4 C    0.949
    11   1 H    0.996 --     4 C    0.939
    12   1 H    0.999 --     5 C    0.976
    13   1 H    0.995 --     6 C    0.937
    14   1 H    0.997 --     6 C    0.954
    15   1 H    0.998 --     7 C    0.977
    16   1 H    0.998 --     7 C    0.977
 ---------------------------------------------------------------------------

Topologies differ in total number of bonds
Writing topology from bond orders to xtbtopo.mol

molecular dipole:
                 x           y           z       tot (Debye)
 q only:        0.036       0.220      -0.444
   full:        0.279       0.241      -0.539       1.660
molecular quadrupole (traceless):
                xx          xy          yy          xz          yz          zz
 q only:        3.144      -0.625      -0.996       0.041       0.507      -2.148
  q+dip:        4.693      -0.058      -2.561      -0.642       1.302      -2.131
   full:        4.828      -0.476      -2.258      -0.151       1.028      -2.570

           -------------------------------------------------
          |                Geometry Summary                 |
           -------------------------------------------------

      molecular mass/u    :      101.1239561
   center of mass at/Å    :        0.2922665      -0.1150065       0.1745400
  moments of inertia/u·Å² :        0.1016622E+03   0.2436245E+03   0.2825463E+03
rotational constants/cm⁻¹ :        0.1658201E+00   0.6919515E-01   0.5966326E-01

 * 16 selected distances

     #   Z          #   Z                                           value/Å
     1   8 O        2   8 O                                       1.4164168
     2   8 O        3   6 C                                       1.4125700
     3   6 C        4   6 C                                       1.5349121 (max)
     4   6 C        5   6 C                                       1.4780373
     5   6 C        6   6 C                                       1.4797730
     3   6 C        7   6 C                                       1.5308692
     6   6 C        7   6 C                                       1.5323593
     1   8 O        8   1 H                                       0.9672658 (min)
     3   6 C        9   1 H                                       1.0989200
     4   6 C       10   1 H                                       1.0940242
     4   6 C       11   1 H                                       1.0989682
     5   6 C       12   1 H                                       1.0720488
     6   6 C       13   1 H                                       1.0989205
     6   6 C       14   1 H                                       1.0950249
     7   6 C       15   1 H                                       1.0880572
     7   6 C       16   1 H                                       1.0893807

 * 5 distinct bonds (by element types)

   Z      Z             #   av. dist./Å        max./Å        min./Å
   1 H    6 C           8     1.0919181     1.0989682     1.0720488
   6 C    6 C           5     1.5111902     1.5349121     1.4780373
   1 H    8 O           1     0.9672658     0.9672658     0.9672658
   6 C    8 O           1     1.4125700     1.4125700     1.4125700
   8 O    8 O           1     1.4164168     1.4164168     1.4164168


optimized geometry written to: xtbopt.xyz


           -------------------------------------------------
          | TOTAL ENERGY              -23.276236026705 Eh   |
          | GRADIENT NORM               0.000930154797 Eh/α |
          | HOMO-LUMO GAP               4.147035771714 eV   |
           -------------------------------------------------

------------------------------------------------------------------------
 * finished run on 2025/05/23 at 13:10:38.798     
------------------------------------------------------------------------
 total:
 * wall-time:     0 d,  0 h,  0 min,  0.101 sec
 *  cpu-time:     0 d,  0 h,  0 min,  1.494 sec
 * ratio c/w:    14.798 speedup
 SCF:
 * wall-time:     0 d,  0 h,  0 min,  0.009 sec
 *  cpu-time:     0 d,  0 h,  0 min,  0.147 sec
 * ratio c/w:    15.657 speedup
 ANC optimizer:
 * wall-time:     0 d,  0 h,  0 min,  0.085 sec
 *  cpu-time:     0 d,  0 h,  0 min,  1.272 sec
 * ratio c/w:    14.995 speedup

