      -----------------------------------------------------------      
     |                   =====================                   |     
     |                           x T B                           |     
     |                   =====================                   |     
     |                         S. Grimme                         |     
     |          Mulliken Center for Theoretical Chemistry        |     
     |                    University of Bonn                     |     
      -----------------------------------------------------------      

   * xtb version 6.6.1 (8d0f1dd) compiled by 'conda@1efc2f54142f' on 2023-08-01

   xtb is free software: you can redistribute it and/or modify it under
   the terms of the GNU Lesser General Public License as published by
   the Free Software Foundation, either version 3 of the License, or
   (at your option) any later version.
   
   xtb is distributed in the hope that it will be useful,
   but WITHOUT ANY WARRANTY; without even the implied warranty of
   MERCHANTABILITY or FITNESS FOR A PARTICULAR PURPOSE.  See the
   GNU Lesser General Public License for more details.
   
   Cite this work as:
   * C. Bannwarth, E. Caldeweyher, S. Ehlert, A. Hansen, P. Pracht,
     J. Seibert, S. Spicher, S. Grimme, WIREs Comput. Mol. Sci., 2020, 11,
     e01493. DOI: 10.1002/wcms.1493
   
   for GFN2-xTB:
   * C. Bannwarth, S. Ehlert and S. Grimme., J. Chem. Theory Comput., 2019,
     15, 1652-1671. DOI: 10.1021/acs.jctc.8b01176
   for GFN1-xTB:
   * S. Grimme, C. Bannwarth, P. Shushkov, J. Chem. Theory Comput., 2017,
     13, 1989-2009. DOI: 10.1021/acs.jctc.7b00118
   for GFN0-xTB:
   * P. Pracht, E. Caldeweyher, S. Ehlert, S. Grimme, ChemRxiv, 2019, preprint.
     DOI: 10.26434/chemrxiv.8326202.v1
   for GFN-FF:
   * S. Spicher and S. Grimme, Angew. Chem. Int. Ed., 2020, 59, 15665-15673.
     DOI: 10.1002/anie.202004239
   
   for ALPB and GBSA implicit solvation:
   * S. Ehlert, M. Stahn, S. Spicher, S. Grimme, J. Chem. Theory Comput.,
     2021, 17, 4250-4261. DOI: 10.1021/acs.jctc.1c00471
   
   for DFT-D4:
   * E. Caldeweyher, C. Bannwarth and S. Grimme, J. Chem. Phys., 2017,
     147, 034112. DOI: 10.1063/1.4993215
   * E. Caldeweyher, S. Ehlert, A. Hansen, H. Neugebauer, S. Spicher,
     C. Bannwarth and S. Grimme, J. Chem. Phys., 2019, 150, 154122.
     DOI: 10.1063/1.5090222
   * E. Caldeweyher, J.-M. Mewes, S. Ehlert and S. Grimme, Phys. Chem. Chem. Phys.
     2020, 22, 8499-8512. DOI: 10.1039/D0CP00502A
   
   for sTDA-xTB:
   * S. Grimme and C. Bannwarth, J. Chem. Phys., 2016, 145, 054103.
     DOI: 10.1063/1.4959605
   
   in the mass-spec context:
   * V. Asgeirsson, C. Bauer and S. Grimme, Chem. Sci., 2017, 8, 4879.
     DOI: 10.1039/c7sc00601b
   * J. Koopman and S. Grimme, ACS Omega 2019, 4, 12, 15120-15133.
     DOI: 10.1021/acsomega.9b02011
   
   for metadynamics refer to:
   * S. Grimme, J. Chem. Theory Comput., 2019, 155, 2847-2862
     DOI: 10.1021/acs.jctc.9b00143
   
   for SPH calculations refer to:
   * S. Spicher and S. Grimme, J. Chem. Theory Comput., 2021, 17, 1701-1714
     DOI: 10.1021/acs.jctc.0c01306
   
   with help from (in alphabetical order)
   P. Atkinson, C. Bannwarth, F. Bohle, G. Brandenburg, E. Caldeweyher
   M. Checinski, S. Dohm, S. Ehlert, S. Ehrlich, I. Gerasimov, C. Hölzer
   A. Katbashev, J. Koopman, C. Lavigne, S. Lehtola, F. März, M. Müller,
   F. Musil, H. Neugebauer, J. Pisarek, C. Plett, P. Pracht, F. Pultar,
   J. Seibert, P. Shushkov, S. Spicher, M. Stahn, M. Steiner, T. Strunk,
   J. Stückrath, T. Rose, and J. Unsleber
   
 * started run on 2025/05/23 at 13:10:39.472     

           -------------------------------------------------
          |                Calculation Setup                |
           -------------------------------------------------

          program call               : /gpfs/fs1/home/copan/code/autode-practice/.pixi/envs/default/bin/xtb path_opt1_xtb.xyz --chrg 0 --uhf 1 --opt --input xcontrol_path_opt1_xtb
          hostname                   : csed-0021
          coordinate file            : path_opt1_xtb.xyz
          omp threads                :                     8

   ID    Z sym.   atoms
    1    8 O      1, 2
    2    6 C      3-7
    3    1 H      8-16
constraining bond 2 5 to    2.5550000 Å, actual value:    2.8377695 Å
constraining bond 1 2 to    1.6578000 Å, actual value:    1.6072103 Å

           -------------------------------------------------
          |                 G F N 2 - x T B                 |
           -------------------------------------------------

        Reference                      10.1021/acs.jctc.8b01176
      * Hamiltonian:
        H0-scaling (s, p, d)           1.850000    2.230000    2.230000
        zeta-weighting                 0.500000
      * Dispersion:
        s8                             2.700000
        a1                             0.520000
        a2                             5.000000
        s9                             5.000000
      * Repulsion:
        kExp                           1.500000    1.000000
        rExp                           1.000000
      * Coulomb:
        alpha                          2.000000
        third order                    shell-resolved
        anisotropic                    true
        a3                             3.000000
        a5                             4.000000
        cn-shift                       1.200000
        cn-exp                         4.000000
        max-rad                        5.000000


          ...................................................
          :                      SETUP                      :
          :.................................................:
          :  # basis functions                  37          :
          :  # atomic orbitals                  37          :
          :  # shells                           23          :
          :  # electrons                        41          :
          :  max. iterations                   250          :
          :  Hamiltonian                  GFN2-xTB          :
          :  restarted?                      false          :
          :  GBSA solvation                  false          :
          :  PC potential                    false          :
          :  electronic temp.          300.0000000     K    :
          :  accuracy                    1.0000000          :
          :  -> integral cutoff          0.2500000E+02      :
          :  -> integral neglect         0.1000000E-07      :
          :  -> SCF convergence          0.1000000E-05 Eh   :
          :  -> wf. convergence          0.1000000E-03 e    :
          :  Broyden damping             0.4000000          :
          ...................................................

 iter      E             dE          RMSdq      gap      omega  full diag
   1    -23.4769830 -0.234770E+02  0.310E+00    1.40       0.0  T
   2    -23.4962505 -0.192675E-01  0.182E+00    1.32       1.0  T
   3    -23.4969295 -0.678996E-03  0.616E-01    0.95       1.0  T
   4    -23.4973480 -0.418441E-03  0.115E-01    0.78       1.0  T
   5    -23.4974066 -0.586256E-04  0.566E-02    0.84       1.0  T
   6    -23.4974103 -0.369412E-05  0.169E-02    0.86       1.5  T
   7    -23.4974108 -0.496555E-06  0.620E-03    0.86       4.0  T
   8    -23.4974109 -0.900782E-07  0.212E-03    0.86      11.8  T
   9    -23.4974109 -0.682093E-08  0.827E-04    0.86      30.2  T
  10    -23.4974109 -0.240665E-08  0.283E-04    0.86      88.2  T

   *** convergence criteria satisfied after 10 iterations ***

         #    Occupation            Energy/Eh            Energy/eV
      -------------------------------------------------------------
         1        2.0000           -0.7012962             -19.0832
       ...           ...                  ...                  ...
        15        2.0000           -0.4601570             -12.5215
        16        2.0000           -0.4528824             -12.3236
        17        2.0000           -0.4518951             -12.2967
        18        2.0000           -0.4484953             -12.2042
        19        2.0000           -0.4450339             -12.1100
        20        2.0000           -0.4097136             -11.1489
        21        1.0000           -0.2929643              -7.9720 (HOMO)
        22                         -0.2614504              -7.1144 (LUMO)
        23                          0.0583601               1.5881
        24                          0.0697460               1.8979
        25                          0.1011382               2.7521
        26                          0.1120738               3.0497
       ...                                ...                  ...
        37                          0.3966389              10.7931
      -------------------------------------------------------------
                  HL-Gap            0.0315138 Eh            0.8575 eV
             Fermi-level           -0.3142732 Eh           -8.5518 eV

 SCC (total)                   0 d,  0 h,  0 min,  0.009 sec
 SCC setup                      ...        0 min,  0.000 sec (  1.957%)
 Dispersion                     ...        0 min,  0.000 sec (  1.338%)
 classical contributions        ...        0 min,  0.000 sec (  1.870%)
 integral evaluation            ...        0 min,  0.000 sec (  5.024%)
 iterations                     ...        0 min,  0.007 sec ( 76.865%)
 molecular gradient             ...        0 min,  0.001 sec ( 10.777%)
 printout                       ...        0 min,  0.000 sec (  1.900%)

         :::::::::::::::::::::::::::::::::::::::::::::::::::::
         ::                     SUMMARY                     ::
         :::::::::::::::::::::::::::::::::::::::::::::::::::::
         :: total energy             -22.672199413180 Eh    ::
         :: gradient norm              3.136796367027 Eh/a0 ::
         :: HOMO-LUMO gap              0.857534871335 eV    ::
         ::.................................................::
         :: SCC energy               -23.497410869370 Eh    ::
         :: -> isotropic ES            0.031382957679 Eh    ::
         :: -> anisotropic ES         -0.003900690328 Eh    ::
         :: -> anisotropic XC          0.003635073070 Eh    ::
         :: -> dispersion             -0.009839370703 Eh    ::
         :: repulsion energy           0.235830491839 Eh    ::
         :: add. restraining           0.589353489297 Eh    ::
         :: total charge              -0.000000000000 e     ::
         :::::::::::::::::::::::::::::::::::::::::::::::::::::

      ----------------------------------------------------------- 
     |                   =====================                   |
     |                        A N C O P T                        |
     |                   =====================                   |
     |               Approximate Normal Coordinate               |
     |                Rational Function Optimizer                |
      ----------------------------------------------------------- 

          ...................................................
          :                      SETUP                      :
          :.................................................:
          :   optimization level            normal          :
          :   max. optcycles                   200          :
          :   ANC micro-cycles                  20          :
          :   degrees of freedom                42          :
          :.................................................:
          :   RF solver                   davidson          :
          :   write xtbopt.log                true          :
          :   linear?                        false          :
          :   energy convergence         0.5000000E-05 Eh   :
          :   grad. convergence          0.1000000E-02 Eh/α :
          :   maxmium RF displ.          1.0000000          :
          :   Hlow (freq-cutoff)         0.1000000E-01      :
          :   Hmax (freq-cutoff)         5.0000000          :
          :   S6 in model hess.         20.0000000          :
          ...................................................

generating ANC from model Hessian ...
Using Lindh-Hessian (1995)
 Shifting diagonal of input Hessian by   0.14826745384260470     
 Lowest  eigenvalues of input Hessian
    0.010000    0.102278    0.000000    0.000000    0.000000    0.000000
    0.000000    0.000000    0.156273    0.163711    0.166940    0.188663
    0.195237    0.196603    0.199517    0.203449    0.204118    0.205565
 Highest eigenvalues
    1.375806    1.392834    1.739293    1.860434    7.065383   10.535687


........................................................................
.............................. CYCLE    1 ..............................
........................................................................

 iter      E             dE          RMSdq      gap      omega  full diag
   1    -23.4974109 -0.234974E+02  0.960E-05    0.86       0.0  T
   2    -23.4974109 -0.307132E-10  0.698E-05    0.86     358.1  T
   3    -23.4974109 -0.254694E-10  0.352E-05    0.86     710.5  T
     SCC iter.                  ...        0 min,  0.002 sec
     gradient                   ...        0 min,  0.001 sec
 * total energy  :   -22.6721994 Eh     change       -0.5255316E-09 Eh
   gradient norm :     3.1367964 Eh/α   predicted     0.0000000E+00 (-100.00%)
   displ. norm   :     0.4878803 α      lambda       -0.1520930E+01
   maximum displ.:     0.3933916 α      in ANC's #41, #42, #33, ...

........................................................................
.............................. CYCLE    2 ..............................
........................................................................

 iter      E             dE          RMSdq      gap      omega  full diag
   1    -23.2374261 -0.232374E+02  0.320E+00    0.78       0.0  T
   2    -22.8071090  0.430317E+00  0.562E+00    3.15       1.0  T
   3    -23.4588501 -0.651741E+00  0.892E-01    1.21       1.0  T
   4    -23.4662620 -0.741194E-02  0.570E-01    0.87       1.0  T
   5    -23.4694971 -0.323509E-02  0.332E-01    0.65       1.0  T
   6    -23.4692706  0.226561E-03  0.276E-01    0.42       1.0  T
   7    -23.4709978 -0.172725E-02  0.435E-02    0.51       1.0  T
   8    -23.4710191 -0.212420E-04  0.208E-02    0.50       1.2  T
   9    -23.4710240 -0.494474E-05  0.117E-02    0.50       2.1  T
  10    -23.4710259 -0.185572E-05  0.531E-03    0.50       4.7  T
  11    -23.4710264 -0.500615E-06  0.203E-03    0.50      12.3  T
  12    -23.4710264 -0.269185E-07  0.159E-03    0.50      15.7  T
  13    -23.4710264 -0.531233E-07  0.203E-04    0.50     123.3  T
  14    -23.4710264 -0.110653E-09  0.471E-05    0.50     530.9  T
     SCC iter.                  ...        0 min,  0.007 sec
     gradient                   ...        0 min,  0.001 sec
 * total energy  :   -23.1305992 Eh     change       -0.4583998E+00 Eh
   gradient norm :     1.4881693 Eh/α   predicted    -0.9414760E+00 ( 105.38%)
   displ. norm   :     0.2458740 α      lambda       -0.2432884E+00
   maximum displ.:     0.1602830 α      in ANC's #1, #41, #2, ...

........................................................................
.............................. CYCLE    3 ..............................
........................................................................

 iter      E             dE          RMSdq      gap      omega  full diag
   1    -23.4804114 -0.234804E+02  0.573E-01    1.69       0.0  T
   2    -23.4842002 -0.378888E-02  0.304E-01    0.87       1.0  T
   3    -23.4845006 -0.300335E-03  0.173E-01    0.89       1.0  T
   4    -23.4845172 -0.166739E-04  0.587E-02    0.78       1.0  T
   5    -23.4845324 -0.151990E-04  0.250E-02    0.84       1.0  T
   6    -23.4845374 -0.498185E-05  0.743E-03    0.82       3.4  T
   7    -23.4845376 -0.192242E-06  0.390E-03    0.82       6.4  T
   8    -23.4845377 -0.483878E-07  0.139E-03    0.82      18.0  T
   9    -23.4845377 -0.921684E-08  0.780E-04    0.82      32.1  T
  10    -23.4845377 -0.426262E-08  0.231E-04    0.82     108.2  T
     SCC iter.                  ...        0 min,  0.005 sec
     gradient                   ...        0 min,  0.001 sec
 * total energy  :   -23.2387921 Eh     change       -0.1081929E+00 Eh
   gradient norm :     0.2384699 Eh/α   predicted    -0.1289980E+00 (  19.23%)
   displ. norm   :     0.3014701 α      lambda       -0.1549383E-01
   maximum displ.:     0.2822961 α      in ANC's #1, #42, #4, ...

........................................................................
.............................. CYCLE    4 ..............................
........................................................................

 iter      E             dE          RMSdq      gap      omega  full diag
   1    -23.4823023 -0.234823E+02  0.393E-01    0.53       0.0  T
   2    -23.4824963 -0.194039E-03  0.253E-01    0.77       1.0  T
   3    -23.4825094 -0.131103E-04  0.171E-01    0.58       1.0  T
   4    -23.4827712 -0.261749E-03  0.252E-02    0.67       1.0  T
   5    -23.4827731 -0.193318E-05  0.874E-03    0.67       2.9  T
   6    -23.4827733 -0.168174E-06  0.401E-03    0.67       6.2  T
   7    -23.4827733 -0.132214E-07  0.911E-04    0.67      27.4  T
   8    -23.4827733 -0.187262E-08  0.337E-04    0.67      74.1  T
     SCC iter.                  ...        0 min,  0.004 sec
     gradient                   ...        0 min,  0.001 sec
 * total energy  :   -23.2446765 Eh     change       -0.5884393E-02 Eh
   gradient norm :     0.1543193 Eh/α   predicted    -0.8451003E-02 (  43.62%)
   displ. norm   :     0.3645370 α      lambda       -0.6667716E-02
   maximum displ.:     0.3571503 α      in ANC's #1, #4, #41, ...

........................................................................
.............................. CYCLE    5 ..............................
........................................................................

 iter      E             dE          RMSdq      gap      omega  full diag
   1    -23.4862569 -0.234863E+02  0.356E-01    0.68       0.0  T
   2    -23.4862805 -0.235922E-04  0.222E-01    0.65       1.0  T
   3    -23.4862567  0.237479E-04  0.472E-02    0.69       1.0  T
   4    -23.4862927 -0.360194E-04  0.117E-02    0.65       2.1  T
   5    -23.4862931 -0.387711E-06  0.590E-03    0.66       4.2  T
   6    -23.4862932 -0.838511E-07  0.156E-03    0.65      16.0  T
   7    -23.4862932 -0.721228E-08  0.537E-04    0.65      46.6  T
   8    -23.4862932 -0.113506E-08  0.255E-04    0.65      98.2  T
     SCC iter.                  ...        0 min,  0.004 sec
     gradient                   ...        0 min,  0.001 sec
 * total energy  :   -23.2469455 Eh     change       -0.2268951E-02 Eh
   gradient norm :     0.0532582 Eh/α   predicted    -0.3776876E-02 (  66.46%)
   displ. norm   :     0.1377457 α      lambda       -0.1967799E-02
   maximum displ.:     0.1210676 α      in ANC's #1, #4, #13, ...

........................................................................
.............................. CYCLE    6 ..............................
........................................................................

 iter      E             dE          RMSdq      gap      omega  full diag
   1    -23.4879930 -0.234880E+02  0.160E-01    0.77       0.0  T
   2    -23.4880258 -0.328833E-04  0.102E-01    0.70       1.0  T
   3    -23.4880166  0.919664E-05  0.497E-02    0.75       1.0  T
   4    -23.4880367 -0.200374E-04  0.715E-03    0.72       3.5  T
   5    -23.4880370 -0.275406E-06  0.357E-03    0.72       7.0  T
   6    -23.4880370 -0.134011E-07  0.916E-04    0.72      27.3  T
   7    -23.4880370 -0.182206E-08  0.296E-04    0.72      84.4  T
     SCC iter.                  ...        0 min,  0.003 sec
     gradient                   ...        0 min,  0.001 sec
 * total energy  :   -23.2478005 Eh     change       -0.8549946E-03 Eh
   gradient norm :     0.0459927 Eh/α   predicted    -0.1002568E-02 (  17.26%)
   displ. norm   :     0.0643158 α      lambda       -0.6794430E-03
   maximum displ.:     0.0381260 α      in ANC's #4, #13, #12, ...

........................................................................
.............................. CYCLE    7 ..............................
........................................................................

 iter      E             dE          RMSdq      gap      omega  full diag
   1    -23.4872910 -0.234873E+02  0.693E-02    0.69       0.0  T
   2    -23.4872940 -0.292416E-05  0.407E-02    0.70       1.0  T
   3    -23.4872923  0.165783E-05  0.136E-02    0.69       1.8  T
   4    -23.4872945 -0.224926E-05  0.312E-03    0.70       8.0  T
   5    -23.4872947 -0.106875E-06  0.130E-03    0.70      19.2  T
   6    -23.4872947 -0.266033E-08  0.471E-04    0.70      53.1  T
   7    -23.4872947 -0.315492E-09  0.150E-04    0.70     166.5  T
     SCC iter.                  ...        0 min,  0.004 sec
     gradient                   ...        0 min,  0.001 sec
 * total energy  :   -23.2482962 Eh     change       -0.4957093E-03 Eh
   gradient norm :     0.0162122 Eh/α   predicted    -0.3411254E-03 ( -31.18%)
   displ. norm   :     0.0917567 α      lambda       -0.5527094E-03
   maximum displ.:     0.0622884 α      in ANC's #4, #12, #13, ...

........................................................................
.............................. CYCLE    8 ..............................
........................................................................

 iter      E             dE          RMSdq      gap      omega  full diag
   1    -23.4859671 -0.234860E+02  0.904E-02    0.67       0.0  T
   2    -23.4859707 -0.359864E-05  0.523E-02    0.69       1.0  T
   3    -23.4859681  0.258563E-05  0.163E-02    0.67       1.5  T
   4    -23.4859714 -0.326949E-05  0.367E-03    0.69       6.8  T
   5    -23.4859716 -0.200864E-06  0.135E-03    0.68      18.5  T
   6    -23.4859716 -0.186458E-08  0.478E-04    0.68      52.2  T
   7    -23.4859716 -0.410580E-09  0.124E-04    0.68     201.4  T
     SCC iter.                  ...        0 min,  0.004 sec
     gradient                   ...        0 min,  0.001 sec
 * total energy  :   -23.2486595 Eh     change       -0.3633377E-03 Eh
   gradient norm :     0.0142458 Eh/α   predicted    -0.2786815E-03 ( -23.30%)
   displ. norm   :     0.0682644 α      lambda       -0.2273686E-03
   maximum displ.:     0.0535233 α      in ANC's #4, #12, #13, ...

........................................................................
.............................. CYCLE    9 ..............................
........................................................................

 iter      E             dE          RMSdq      gap      omega  full diag
   1    -23.4856338 -0.234856E+02  0.576E-02    0.67       0.0  T
   2    -23.4856346 -0.879776E-06  0.332E-02    0.68       1.0  T
   3    -23.4856339  0.748307E-06  0.804E-03    0.67       3.1  T
   4    -23.4856348 -0.905914E-06  0.178E-03    0.68      14.1  T
   5    -23.4856348 -0.553194E-07  0.562E-04    0.68      44.5  T
   6    -23.4856348 -0.523627E-09  0.226E-04    0.68     110.7  T
     SCC iter.                  ...        0 min,  0.003 sec
     gradient                   ...        0 min,  0.001 sec
 * total energy  :   -23.2488215 Eh     change       -0.1620180E-03 Eh
   gradient norm :     0.0129755 Eh/α   predicted    -0.1142153E-03 ( -29.50%)
   displ. norm   :     0.0681139 α      lambda       -0.1674827E-03
   maximum displ.:     0.0599009 α      in ANC's #4, #12, #3, ...

........................................................................
.............................. CYCLE   10 ..............................
........................................................................

 iter      E             dE          RMSdq      gap      omega  full diag
   1    -23.4859130 -0.234859E+02  0.467E-02    0.68       0.0  T
   2    -23.4859134 -0.379984E-06  0.273E-02    0.68       1.0  T
   3    -23.4859127  0.674141E-06  0.669E-03    0.67       3.7  T
   4    -23.4859135 -0.801974E-06  0.113E-03    0.68      22.2  T
   5    -23.4859135 -0.177556E-07  0.457E-04    0.68      54.7  T
   6    -23.4859135 -0.458023E-09  0.158E-04    0.68     157.9  T
     SCC iter.                  ...        0 min,  0.003 sec
     gradient                   ...        0 min,  0.001 sec
 * total energy  :   -23.2489419 Eh     change       -0.1203850E-03 Eh
   gradient norm :     0.0063011 Eh/α   predicted    -0.8412966E-04 ( -30.12%)
   displ. norm   :     0.0769896 α      lambda       -0.1541324E-03
   maximum displ.:     0.0709887 α      in ANC's #4, #3, #2, ...

........................................................................
.............................. CYCLE   11 ..............................
........................................................................

 iter      E             dE          RMSdq      gap      omega  full diag
   1    -23.4864655 -0.234865E+02  0.446E-02    0.68       0.0  T
   2    -23.4864658 -0.319742E-06  0.265E-02    0.69       1.0  T
   3    -23.4864646  0.118239E-05  0.848E-03    0.68       2.9  T
   4    -23.4864660 -0.139602E-05  0.895E-04    0.68      27.9  T
   5    -23.4864660 -0.372879E-08  0.489E-04    0.68      51.2  T
   6    -23.4864660 -0.454538E-09  0.130E-04    0.68     191.9  T
     SCC iter.                  ...        0 min,  0.003 sec
     gradient                   ...        0 min,  0.001 sec
 * total energy  :   -23.2490600 Eh     change       -0.1180968E-03 Eh
   gradient norm :     0.0071006 Eh/α   predicted    -0.7752273E-04 ( -34.36%)
   displ. norm   :     0.1202930 α      lambda       -0.2180691E-03
   maximum displ.:     0.1092185 α      in ANC's #4, #3, #2, ...

........................................................................
.............................. CYCLE   12 ..............................
........................................................................

 iter      E             dE          RMSdq      gap      omega  full diag
   1    -23.4870355 -0.234870E+02  0.709E-02    0.69       0.0  T
   2    -23.4870363 -0.870088E-06  0.424E-02    0.70       1.0  T
   3    -23.4870326  0.379154E-05  0.153E-02    0.68       1.6  T
   4    -23.4870370 -0.448941E-05  0.172E-03    0.70      14.6  T
   5    -23.4870370 -0.547605E-08  0.913E-04    0.70      27.4  T
   6    -23.4870371 -0.172075E-08  0.201E-04    0.70     124.3  T
     SCC iter.                  ...        0 min,  0.003 sec
     gradient                   ...        0 min,  0.001 sec
 * total energy  :   -23.2492202 Eh     change       -0.1601883E-03 Eh
   gradient norm :     0.0133883 Eh/α   predicted    -0.1106135E-03 ( -30.95%)
   displ. norm   :     0.1291219 α      lambda       -0.2061263E-03
   maximum displ.:     0.1112040 α      in ANC's #4, #3, #1, ...

........................................................................
.............................. CYCLE   13 ..............................
........................................................................

 iter      E             dE          RMSdq      gap      omega  full diag
   1    -23.4870639 -0.234871E+02  0.866E-02    0.70       0.0  T
   2    -23.4870653 -0.137473E-05  0.521E-02    0.72       1.0  T
   3    -23.4870594  0.583182E-05  0.193E-02    0.69       1.3  T
   4    -23.4870664 -0.693277E-05  0.259E-03    0.71       9.6  T
   5    -23.4870664 -0.133473E-07  0.143E-03    0.71      17.5  T
   6    -23.4870664 -0.493786E-08  0.264E-04    0.71      94.8  T
   7    -23.4870664 -0.102727E-09  0.979E-05    0.71     255.3  T
     SCC iter.                  ...        0 min,  0.004 sec
     gradient                   ...        0 min,  0.001 sec
 * total energy  :   -23.2493652 Eh     change       -0.1450486E-03 Eh
   gradient norm :     0.0117750 Eh/α   predicted    -0.1047803E-03 ( -27.76%)
   displ. norm   :     0.0845675 α      lambda       -0.1168457E-03
   maximum displ.:     0.0633654 α      in ANC's #4, #1, #11, ...

........................................................................
.............................. CYCLE   14 ..............................
........................................................................

 iter      E             dE          RMSdq      gap      omega  full diag
   1    -23.4868658 -0.234869E+02  0.707E-02    0.71       0.0  T
   2    -23.4868667 -0.976010E-06  0.427E-02    0.72       1.0  T
   3    -23.4868633  0.342870E-05  0.151E-02    0.71       1.7  T
   4    -23.4868674 -0.410481E-05  0.250E-03    0.72      10.0  T
   5    -23.4868674 -0.204011E-07  0.144E-03    0.72      17.4  T
   6    -23.4868674 -0.471484E-08  0.252E-04    0.72      99.0  T
   7    -23.4868674 -0.172218E-09  0.103E-04    0.72     243.2  T
     SCC iter.                  ...        0 min,  0.004 sec
     gradient                   ...        0 min,  0.001 sec
 * total energy  :   -23.2494375 Eh     change       -0.7229786E-04 Eh
   gradient norm :     0.0032218 Eh/α   predicted    -0.5883839E-04 ( -18.62%)
   displ. norm   :     0.0190549 α      lambda       -0.2528019E-04
   maximum displ.:     0.0084045 α      in ANC's #1, #9, #11, ...

........................................................................
.............................. CYCLE   15 ..............................
........................................................................

 iter      E             dE          RMSdq      gap      omega  full diag
   1    -23.4870217 -0.234870E+02  0.232E-02    0.72       0.0  T
   2    -23.4870218 -0.108600E-06  0.138E-02    0.72       1.8  T
   3    -23.4870218  0.266640E-07  0.218E-03    0.72      11.5  T
   4    -23.4870218 -0.481407E-07  0.698E-04    0.72      35.8  T
   5    -23.4870218 -0.243600E-08  0.437E-04    0.72      57.2  T
     SCC iter.                  ...        0 min,  0.003 sec
     gradient                   ...        0 min,  0.001 sec
 * total energy  :   -23.2494553 Eh     change       -0.1779428E-04 Eh
   gradient norm :     0.0019989 Eh/α   predicted    -0.1264555E-04 ( -28.93%)
   displ. norm   :     0.0266517 α      lambda       -0.1892057E-04
   maximum displ.:     0.0133667 α      in ANC's #5, #3, #9, ...

........................................................................
.............................. CYCLE   16 ..............................
........................................................................

 iter      E             dE          RMSdq      gap      omega  full diag
   1    -23.4871230 -0.234871E+02  0.323E-02    0.73       0.0  T
   2    -23.4871232 -0.151504E-06  0.191E-02    0.73       1.3  T
   3    -23.4871231  0.570306E-07  0.234E-03    0.73      10.7  T
   4    -23.4871232 -0.825695E-07  0.813E-04    0.73      30.7  T
   5    -23.4871232 -0.691280E-08  0.394E-04    0.73      63.4  T
     SCC iter.                  ...        0 min,  0.003 sec
     gradient                   ...        0 min,  0.001 sec
 * total energy  :   -23.2494722 Eh     change       -0.1681696E-04 Eh
   gradient norm :     0.0028419 Eh/α   predicted    -0.9462323E-05 ( -43.73%)
   displ. norm   :     0.0136256 α      lambda       -0.1064652E-04
   maximum displ.:     0.0085248 α      in ANC's #5, #3, #1, ...

........................................................................
.............................. CYCLE   17 ..............................
........................................................................

 iter      E             dE          RMSdq      gap      omega  full diag
   1    -23.4870597 -0.234871E+02  0.139E-02    0.73       0.0  T
   2    -23.4870597 -0.102372E-07  0.820E-03    0.73       3.0  T
   3    -23.4870597 -0.159607E-08  0.365E-04    0.73      68.6  T
   4    -23.4870597 -0.658698E-09  0.185E-04    0.73     135.0  T
     SCC iter.                  ...        0 min,  0.002 sec
     gradient                   ...        0 min,  0.001 sec
 * total energy  :   -23.2494813 Eh     change       -0.9120459E-05 Eh
   gradient norm :     0.0017470 Eh/α   predicted    -0.5323359E-05 ( -41.63%)
   displ. norm   :     0.0674921 α      lambda       -0.2826575E-04
   maximum displ.:     0.0450646 α      in ANC's #5, #3, #1, ...

........................................................................
.............................. CYCLE   18 ..............................
........................................................................

 iter      E             dE          RMSdq      gap      omega  full diag
   1    -23.4868117 -0.234868E+02  0.667E-02    0.73       0.0  T
   2    -23.4868119 -0.187799E-06  0.393E-02    0.73       1.0  T
   3    -23.4868119  0.156903E-07  0.225E-03    0.72      11.1  T
   4    -23.4868119 -0.573938E-07  0.102E-03    0.73      24.6  T
   5    -23.4868119 -0.924447E-08  0.479E-04    0.73      52.2  T
   6    -23.4868119 -0.111251E-08  0.135E-04    0.73     185.8  T
     SCC iter.                  ...        0 min,  0.003 sec
     gradient                   ...        0 min,  0.001 sec
 * total energy  :   -23.2494998 Eh     change       -0.1851344E-04 Eh
   gradient norm :     0.0040313 Eh/α   predicted    -0.1416048E-04 ( -23.51%)
   displ. norm   :     0.0073591 α      lambda       -0.9229896E-05
   maximum displ.:     0.0041969 α      in ANC's #5, #2, #4, ...

........................................................................
.............................. CYCLE   19 ..............................
........................................................................

 iter      E             dE          RMSdq      gap      omega  full diag
   1    -23.4869366 -0.234869E+02  0.534E-03    0.72       0.0  T
   2    -23.4869366 -0.426914E-08  0.318E-03    0.72       7.9  T
   3    -23.4869366  0.112793E-08  0.428E-04    0.72      58.5  T
   4    -23.4869366 -0.204104E-08  0.147E-04    0.72     170.0  T
     SCC iter.                  ...        0 min,  0.002 sec
     gradient                   ...        0 min,  0.001 sec
 * total energy  :   -23.2495081 Eh     change       -0.8276092E-05 Eh
   gradient norm :     0.0032077 Eh/α   predicted    -0.4614655E-05 ( -44.24%)
   displ. norm   :     0.0528435 α      lambda       -0.4034976E-04
   maximum displ.:     0.0366210 α      in ANC's #5, #3, #2, ...

........................................................................
.............................. CYCLE   20 ..............................
........................................................................

 iter      E             dE          RMSdq      gap      omega  full diag
   1    -23.4870959 -0.234871E+02  0.448E-02    0.72       0.0  T
   2    -23.4870961 -0.112290E-06  0.266E-02    0.72       1.0  T
   3    -23.4870959  0.116815E-06  0.286E-03    0.72       8.7  T
   4    -23.4870961 -0.157213E-06  0.917E-04    0.72      27.3  T
   5    -23.4870961 -0.533818E-08  0.370E-04    0.72      67.6  T
     SCC iter.                  ...        0 min,  0.003 sec
     gradient                   ...        0 min,  0.001 sec
 * total energy  :   -23.2495320 Eh     change       -0.2392876E-04 Eh
   gradient norm :     0.0015650 Eh/α   predicted    -0.2023020E-04 ( -15.46%)
   displ. norm   :     0.0503305 α      lambda       -0.9098698E-05
   maximum displ.:     0.0358047 α      in ANC's #5, #3, #1, ...
 * RMSD in coord.:     0.2436981 α      energy gain  -0.5773326E+00 Eh

generating ANC from model Hessian ...
Using Lindh-Hessian (1995)
 Shifting diagonal of input Hessian by    2.6532053694927303E-002
 Lowest  eigenvalues of input Hessian
    0.010000    0.000000    0.000000    0.000000    0.000000    0.000000
    0.000000    0.027652    0.033036    0.040029    0.043407    0.058319
    0.065707    0.073465    0.075759    0.077753    0.080625    0.082186
 Highest eigenvalues
    1.276266    1.291760    1.420178    1.489834    6.499954   10.539611


........................................................................
.............................. CYCLE   21 ..............................
........................................................................

 iter      E             dE          RMSdq      gap      omega  full diag
   1    -23.4871687 -0.234872E+02  0.426E-02    0.72       0.0  T
   2    -23.4871687 -0.547214E-07  0.252E-02    0.72       1.0  T
   3    -23.4871687 -0.141177E-07  0.103E-03    0.72      24.3  T
   4    -23.4871687 -0.455734E-08  0.540E-04    0.72      46.3  T
   5    -23.4871687 -0.257572E-09  0.248E-04    0.72     101.0  T
     SCC iter.                  ...        0 min,  0.003 sec
     gradient                   ...        0 min,  0.001 sec
 * total energy  :   -23.2495417 Eh     change       -0.9732814E-05 Eh
   gradient norm :     0.0019340 Eh/α   predicted     0.0000000E+00 (-100.00%)
   displ. norm   :     0.0262914 α      lambda       -0.1279447E-04
   maximum displ.:     0.0189277 α      in ANC's #1, #3, #4, ...

........................................................................
.............................. CYCLE   22 ..............................
........................................................................

 iter      E             dE          RMSdq      gap      omega  full diag
   1    -23.4871844 -0.234872E+02  0.216E-02    0.72       0.0  T
   2    -23.4871845 -0.101661E-06  0.133E-02    0.72       1.9  T
   3    -23.4871842  0.303168E-06  0.445E-03    0.72       5.6  T
   4    -23.4871846 -0.363320E-06  0.852E-04    0.72      29.3  T
   5    -23.4871846 -0.300094E-08  0.449E-04    0.72      55.7  T
     SCC iter.                  ...        0 min,  0.003 sec
     gradient                   ...        0 min,  0.001 sec
 * total energy  :   -23.2495546 Eh     change       -0.1289224E-04 Eh
   gradient norm :     0.0011345 Eh/α   predicted    -0.6399740E-05 ( -50.36%)
   displ. norm   :     0.0395231 α      lambda       -0.9175188E-05
   maximum displ.:     0.0248449 α      in ANC's #1, #3, #2, ...

........................................................................
.............................. CYCLE   23 ..............................
........................................................................

 iter      E             dE          RMSdq      gap      omega  full diag
   1    -23.4871011 -0.234871E+02  0.239E-02    0.72       0.0  T
   2    -23.4871012 -0.102703E-06  0.147E-02    0.72       1.7  T
   3    -23.4871012 -0.983295E-09  0.178E-03    0.72      14.1  T
   4    -23.4871012 -0.238999E-07  0.640E-04    0.72      39.0  T
   5    -23.4871012  0.115531E-09  0.373E-04    0.72      67.0  T
     SCC iter.                  ...        0 min,  0.003 sec
     gradient                   ...        0 min,  0.001 sec
 * total energy  :   -23.2495639 Eh     change       -0.9259772E-05 Eh
   gradient norm :     0.0032130 Eh/α   predicted    -0.4591107E-05 ( -50.42%)
   displ. norm   :     0.0441751 α      lambda       -0.1218757E-04
   maximum displ.:     0.0296746 α      in ANC's #3, #1, #2, ...

........................................................................
.............................. CYCLE   24 ..............................
........................................................................

 iter      E             dE          RMSdq      gap      omega  full diag
   1    -23.4871081 -0.234871E+02  0.223E-02    0.72       0.0  T
   2    -23.4871083 -0.142817E-06  0.136E-02    0.72       1.8  T
   3    -23.4871077  0.558917E-06  0.659E-03    0.72       3.8  T
   4    -23.4871084 -0.694365E-06  0.558E-04    0.72      44.8  T
   5    -23.4871084 -0.510724E-09  0.272E-04    0.72      92.1  T
     SCC iter.                  ...        0 min,  0.003 sec
     gradient                   ...        0 min,  0.001 sec
 * total energy  :   -23.2495717 Eh     change       -0.7855399E-05 Eh
   gradient norm :     0.0028039 Eh/α   predicted    -0.6104940E-05 ( -22.28%)
   displ. norm   :     0.0489139 α      lambda       -0.9794078E-05
   maximum displ.:     0.0356500 α      in ANC's #3, #1, #2, ...

........................................................................
.............................. CYCLE   25 ..............................
........................................................................

 iter      E             dE          RMSdq      gap      omega  full diag
   1    -23.4870803 -0.234871E+02  0.224E-02    0.72       0.0  T
   2    -23.4870803 -0.431100E-07  0.137E-02    0.72       1.8  T
   3    -23.4870803 -0.325971E-08  0.101E-03    0.72      24.9  T
   4    -23.4870803 -0.918192E-08  0.461E-04    0.72      54.3  T
   5    -23.4870803 -0.732182E-09  0.235E-04    0.72     106.5  T
     SCC iter.                  ...        0 min,  0.003 sec
     gradient                   ...        0 min,  0.001 sec
 * total energy  :   -23.2495782 Eh     change       -0.6476538E-05 Eh
   gradient norm :     0.0012543 Eh/α   predicted    -0.4909217E-05 ( -24.20%)
   displ. norm   :     0.0515421 α      lambda       -0.5816661E-05
   maximum displ.:     0.0425167 α      in ANC's #3, #4, #2, ...

........................................................................
.............................. CYCLE   26 ..............................
........................................................................

 iter      E             dE          RMSdq      gap      omega  full diag
   1    -23.4870823 -0.234871E+02  0.238E-02    0.72       0.0  T
   2    -23.4870823 -0.478215E-07  0.145E-02    0.72       1.7  T
   3    -23.4870823  0.492490E-07  0.203E-03    0.72      12.3  T
   4    -23.4870823 -0.721906E-07  0.563E-04    0.72      44.4  T
   5    -23.4870823 -0.127584E-08  0.247E-04    0.72     101.3  T
     SCC iter.                  ...        0 min,  0.003 sec
     gradient                   ...        0 min,  0.001 sec
 * total energy  :   -23.2495834 Eh     change       -0.5232849E-05 Eh
   gradient norm :     0.0009172 Eh/α   predicted    -0.2911465E-05 ( -44.36%)
   displ. norm   :     0.0204917 α      lambda       -0.3588088E-05
   maximum displ.:     0.0126415 α      in ANC's #1, #3, #6, ...

........................................................................
.............................. CYCLE   27 ..............................
........................................................................

 iter      E             dE          RMSdq      gap      omega  full diag
   1    -23.4872048 -0.234872E+02  0.198E-02    0.72       0.0  T
   2    -23.4872049 -0.499674E-07  0.123E-02    0.72       2.0  T
   3    -23.4872049 -0.182123E-07  0.107E-03    0.72      23.3  T
   4    -23.4872049 -0.562741E-08  0.596E-04    0.72      41.9  T
   5    -23.4872049  0.147509E-10  0.306E-04    0.72      81.7  T
     SCC iter.                  ...        0 min,  0.003 sec
     gradient                   ...        0 min,  0.001 sec
 * total energy  :   -23.2495868 Eh     change       -0.3362543E-05 Eh
   gradient norm :     0.0018066 Eh/α   predicted    -0.1794005E-05 ( -46.65%)
   displ. norm   :     0.0221034 α      lambda       -0.2339768E-05
   maximum displ.:     0.0194469 α      in ANC's #3, #6, #4, ...

........................................................................
.............................. CYCLE   28 ..............................
........................................................................

 iter      E             dE          RMSdq      gap      omega  full diag
   1    -23.4871858 -0.234872E+02  0.167E-02    0.72       0.0  T
   2    -23.4871859 -0.342204E-07  0.102E-02    0.72       2.4  T
   3    -23.4871859  0.245361E-08  0.123E-03    0.72      20.4  T
   4    -23.4871859 -0.167427E-07  0.546E-04    0.72      45.8  T
   5    -23.4871859 -0.897277E-09  0.284E-04    0.72      87.9  T
     SCC iter.                  ...        0 min,  0.003 sec
     gradient                   ...        0 min,  0.001 sec
 * total energy  :   -23.2495886 Eh     change       -0.1845721E-05 Eh
   gradient norm :     0.0015089 Eh/α   predicted    -0.1170070E-05 ( -36.61%)
   displ. norm   :     0.0176186 α      lambda       -0.1187012E-05
   maximum displ.:     0.0158663 α      in ANC's #3, #4, #1, ...

........................................................................
.............................. CYCLE   29 ..............................
........................................................................

 iter      E             dE          RMSdq      gap      omega  full diag
   1    -23.4871069 -0.234871E+02  0.138E-02    0.72       0.0  T
   2    -23.4871069 -0.337457E-07  0.853E-03    0.72       2.9  T
   3    -23.4871068  0.808215E-07  0.232E-03    0.73      10.8  T
   4    -23.4871069 -0.102495E-06  0.489E-04    0.72      51.1  T
   5    -23.4871069 -0.350568E-09  0.247E-04    0.72     101.1  T
     SCC iter.                  ...        0 min,  0.003 sec
     gradient                   ...        0 min,  0.001 sec
 * total energy  :   -23.2495896 Eh     change       -0.9305221E-06 Eh
   gradient norm :     0.0005479 Eh/α   predicted    -0.5924032E-06 ( -36.34%)
   displ. norm   :     0.0065173 α      lambda       -0.7103787E-06
   maximum displ.:     0.0035469 α      in ANC's #6, #5, #2, ...

   *** GEOMETRY OPTIMIZATION CONVERGED AFTER 29 ITERATIONS ***

------------------------------------------------------------------------
 total energy gain   :        -0.5773902 Eh     -362.3178 kcal/mol
 total RMSD          :         0.2655387 a0        0.1405 Å
 total power (kW/mol):       -52.2737127 (step)-9769.4817 (real)
------------------------------------------------------------------------

 ANCopt (total)                0 d,  0 h,  0 min,  0.155 sec
 optimizer setup                ...        0 min,  0.000 sec (  0.071%)
 model hessian                  ...        0 min,  0.011 sec (  6.877%)
 ANC generation                 ...        0 min,  0.001 sec (  0.453%)
 coordinate transformation      ...        0 min,  0.000 sec (  0.100%)
 single point calculation       ...        0 min,  0.135 sec ( 86.983%)
 optimization log               ...        0 min,  0.003 sec (  1.652%)
 hessian update                 ...        0 min,  0.000 sec (  0.202%)
 rational function              ...        0 min,  0.004 sec (  2.393%)

================
 final structure:
================
16
 xtb: 6.6.1 (8d0f1dd)
O            2.28943753487788       -1.28070588475098        0.96957728245279
O            1.35804280683428        0.02431596068188        0.58328421096396
C            0.68572492883307       -0.23498055211222       -0.58987285905810
C           -0.46630350628173       -1.18036857710172       -0.23884020525804
C           -1.18013273593886       -0.27183964039763        0.67717010427435
C           -1.10058859145734        1.13786578258641        0.22925081232834
C           -0.02631180792488        1.10264728522173       -0.86660964548579
H            2.67846162903178       -0.92417917599868        1.77303555370642
H            1.35773818269936       -0.55366297436235       -1.39462425611747
H           -0.10778086898630       -2.08936945507182        0.24262144101318
H           -1.04651751631715       -1.45487285635847       -1.12925402358300
H           -1.77133672959710       -0.59085337818312        1.51407745078824
H           -0.81714222249154        1.80144250585091        1.05169380469788
H           -2.06083678601428        1.50694362544628       -0.15431874768489
H            0.66987693717421        1.93597472822751       -0.80300961462941
H           -0.46206125444140        1.07182260632225       -1.86421130840853

 Bond Distances (Angstroems)
 ---------------------------
O1-O2=1.6492         O1-H8=0.9612         O2-O1=1.6492         O2-C3=1.3768         C3-O2=1.3768         C3-C4=1.5311         
C3-C7=1.5404         C3-H9=1.0958         C4-C3=1.5311         C4-C5=1.4745         C4-H10=1.0893        C4-H11=1.0977        
C5-C4=1.4745         C5-C6=1.4813         C5-H12=1.0732        C6-C5=1.4813         C6-C7=1.5350         C6-H13=1.0941        
C6-H14=1.0979        C7-C3=1.5404         C7-C6=1.5350         C7-H15=1.0877        C7-H16=1.0891        H8-O1=0.9612         
H9-C3=1.0958         H10-C4=1.0893        H11-C4=1.0977        H12-C5=1.0732        H13-C6=1.0941        H14-C6=1.0979        
H15-C7=1.0877        H16-C7=1.0891        
 C  H  Rav=1.0906 sigma=0.0076  Rmin=1.0732  Rmax=1.0979     8
 C  C  Rav=1.5124 sigma=0.0285  Rmin=1.4745  Rmax=1.5404     5
 O  H  Rav=0.9612 sigma=0.0000  Rmin=0.9612  Rmax=0.9612     1
 O  C  Rav=1.3768 sigma=0.0000  Rmin=1.3768  Rmax=1.3768     1
 O  O  Rav=1.6492 sigma=0.0000  Rmin=1.6492  Rmax=1.6492     1

 selected bond angles (degree)
 --------------------
H8-O1-O2= 97.52                C3-O2-O1=109.05                C4-C3-O2=106.76                C7-C3-O2=102.43                
C7-C3-C4=103.27                H9-C3-O2=112.40                H9-C3-C4=116.76                H9-C3-C7=113.83                
C5-C4-C3= 97.25                H10-C4-C3=111.65               H10-C4-C5=113.51               H11-C4-C3=111.48               
H11-C4-C5=113.71               H11-C4-H10=108.89              C6-C5-C4=111.87                H12-C5-C4=124.61               
H12-C5-C6=123.25               C7-C6-C5=103.39                H13-C6-C5=111.33               H13-C6-C7=111.67               
H14-C6-C5=112.25               H14-C6-C7=111.74               H14-C6-H13=106.58              C6-C7-C3=102.43                
H15-C7-C3=111.03               H15-C7-C6=112.87               H16-C7-C3=108.96               H16-C7-C6=112.00               
H16-C7-H15=109.35              

 selected dihedral angles (degree)
 ---------------------------------
C4-C3-O2-O1= 76.49            C7-C3-O2-O1=184.66            H9-C3-O2-O1=307.24            C5-C4-C3-O2= 62.04            
C5-C4-C3-C7=314.46            C5-C4-C3-H9=188.73            H10-C4-C3-O2=303.14           H10-C4-C3-C7=195.56           
H10-C4-C3-H9= 69.84           H11-C4-C3-O2=181.10           H11-C4-C3-C7= 73.52           H11-C4-C3-H9=307.79           
C6-C5-C4-C3= 36.04            C6-C5-C4-H10=153.49           C6-C5-C4-H11=278.71           H12-C5-C4-C3=210.27           
H12-C5-C4-H10=327.71          H12-C5-C4-H11= 92.94          C7-C6-C5-C4=347.91            C7-C6-C5-H12=173.60           
H13-C6-C5-C4=227.88           H13-C6-C5-H12= 53.56          H14-C6-C5-C4=108.50           H14-C6-C5-H12=294.18          
C6-C7-C3-O2=289.43            C6-C7-C3-C4= 40.24            C6-C7-C3-H9=167.83            H15-C7-C3-O2= 50.16           
H15-C7-C3-C4=160.98           H15-C7-C3-H9=288.56           H16-C7-C3-O2=170.66           H16-C7-C3-C4=281.47           
H16-C7-C3-H9= 49.06           C3-C7-C6-C5=342.44            C3-C7-C6-H13=102.24           C3-C7-C6-H14=221.51           
H15-C7-C6-C5=222.98           H15-C7-C6-H13=342.78          H15-C7-C6-H14=102.05          H16-C7-C6-C5= 99.05           
H16-C7-C6-H13=218.85          H16-C7-C6-H14=338.12          
           -------------------------------------------------
          |                Final Singlepoint                |
           -------------------------------------------------

          ...................................................
          :                      SETUP                      :
          :.................................................:
          :  # basis functions                  37          :
          :  # atomic orbitals                  37          :
          :  # shells                           23          :
          :  # electrons                        41          :
          :  max. iterations                   250          :
          :  Hamiltonian                  GFN2-xTB          :
          :  restarted?                      false          :
          :  GBSA solvation                  false          :
          :  PC potential                    false          :
          :  electronic temp.          300.0000000     K    :
          :  accuracy                    1.0000000          :
          :  -> integral cutoff          0.2500000E+02      :
          :  -> integral neglect         0.1000000E-07      :
          :  -> SCF convergence          0.1000000E-05 Eh   :
          :  -> wf. convergence          0.1000000E-03 e    :
          :  Broyden damping             0.4000000          :
          ...................................................

 iter      E             dE          RMSdq      gap      omega  full diag
   1    -23.4871069 -0.234871E+02  0.419E-05    0.72       0.0  T
   2    -23.4871069 -0.519762E-11  0.241E-05    0.72    1037.8  T
   3    -23.4871069 -0.675016E-12  0.127E-05    0.72    1966.4  T

   *** convergence criteria satisfied after 3 iterations ***

         #    Occupation            Energy/Eh            Energy/eV
      -------------------------------------------------------------
         1        2.0000           -0.6966919             -18.9580
       ...           ...                  ...                  ...
        15        2.0000           -0.4595207             -12.5042
        16        2.0000           -0.4567156             -12.4279
        17        2.0000           -0.4515421             -12.2871
        18        2.0000           -0.4497136             -12.2373
        19        2.0000           -0.4438141             -12.0768
        20        2.0000           -0.4077805             -11.0963
        21        1.0000           -0.3003051              -8.1717 (HOMO)
        22        0.0000           -0.2737063              -7.4479 (LUMO)
        23                          0.0585580               1.5934
        24                          0.0668673               1.8196
        25                          0.0980471               2.6680
        26                          0.1120316               3.0485
       ...                                ...                  ...
        37                          0.3933798              10.7044
      -------------------------------------------------------------
                  HL-Gap            0.0265987 Eh            0.7238 eV
             Fermi-level           -0.3205242 Eh           -8.7219 eV

 SCC (total)                   0 d,  0 h,  0 min,  0.004 sec
 SCC setup                      ...        0 min,  0.000 sec (  2.046%)
 Dispersion                     ...        0 min,  0.000 sec (  1.590%)
 classical contributions        ...        0 min,  0.000 sec (  0.326%)
 integral evaluation            ...        0 min,  0.000 sec (  8.081%)
 iterations                     ...        0 min,  0.002 sec ( 56.980%)
 molecular gradient             ...        0 min,  0.001 sec ( 26.631%)
 printout                       ...        0 min,  0.000 sec (  3.759%)

         :::::::::::::::::::::::::::::::::::::::::::::::::::::
         ::                     SUMMARY                     ::
         :::::::::::::::::::::::::::::::::::::::::::::::::::::
         :: total energy             -23.249589577821 Eh    ::
         :: gradient norm              0.000547222637 Eh/a0 ::
         :: HOMO-LUMO gap              0.723788737932 eV    ::
         ::.................................................::
         :: SCC energy               -23.487106912658 Eh    ::
         :: -> isotropic ES            0.033504318637 Eh    ::
         :: -> anisotropic ES         -0.004202582205 Eh    ::
         :: -> anisotropic XC          0.004121768322 Eh    ::
         :: -> dispersion             -0.009916321610 Eh    ::
         :: repulsion energy           0.236927775498 Eh    ::
         :: add. restraining           0.000562533150 Eh    ::
         :: total charge               0.000000000000 e     ::
         :::::::::::::::::::::::::::::::::::::::::::::::::::::

           -------------------------------------------------
          |                Property Printout                |
           -------------------------------------------------

    * Orbital Energies and Occupations

         #    Occupation            Energy/Eh            Energy/eV
      -------------------------------------------------------------
         1        2.0000           -0.6966919             -18.9580
       ...           ...                  ...                  ...
         9        2.0000           -0.5490952             -14.9416
        10        2.0000           -0.5365654             -14.6007
        11        2.0000           -0.5204981             -14.1635
        12        2.0000           -0.5069706             -13.7954
        13        2.0000           -0.5004648             -13.6183
        14        2.0000           -0.4709873             -12.8162
        15        2.0000           -0.4595207             -12.5042
        16        2.0000           -0.4567156             -12.4279
        17        2.0000           -0.4515421             -12.2871
        18        2.0000           -0.4497136             -12.2373
        19        2.0000           -0.4438141             -12.0768
        20        2.0000           -0.4077805             -11.0963
        21        1.0000           -0.3003051              -8.1717 (HOMO)
        22        0.0000           -0.2737063              -7.4479 (LUMO)
        23                          0.0585580               1.5934
        24                          0.0668673               1.8196
        25                          0.0980471               2.6680
        26                          0.1120316               3.0485
        27                          0.1274583               3.4683
        28                          0.1350907               3.6760
        29                          0.1506425               4.0992
        30                          0.1646878               4.4814
        31                          0.1857776               5.0553
        32                          0.2032544               5.5308
       ...                                ...                  ...
        37                          0.3933798              10.7044
      -------------------------------------------------------------
                  HL-Gap            0.0265987 Eh            0.7238 eV
             Fermi-level           -0.3205242 Eh           -8.7219 eV

     #   Z          covCN         q      C6AA      α(0)
     1   8 O        1.371    -0.375    20.709     6.125
     2   8 O        1.425    -0.228    18.009     5.717
     3   6 C        3.828     0.135    18.380     6.100
     4   6 C        3.826    -0.063    21.690     6.627
     5   6 C        2.994    -0.051    29.243     8.871
     6   6 C        3.825    -0.053    21.513     6.600
     7   6 C        3.842    -0.059    21.596     6.611
     8   1 H        0.805     0.311     0.690     1.305
     9   1 H        0.924     0.032     2.564     2.504
    10   1 H        0.925     0.065     2.142     2.289
    11   1 H        0.924     0.046     2.377     2.411
    12   1 H        0.926     0.034     2.534     2.489
    13   1 H        0.924     0.058     2.220     2.330
    14   1 H        0.923     0.050     2.326     2.385
    15   1 H        0.925     0.052     2.290     2.366
    16   1 H        0.925     0.047     2.362     2.403

 Mol. C6AA /au·bohr⁶  :       2061.527087
 Mol. C8AA /au·bohr⁸  :      44789.971109
 Mol. α(0) /au        :         67.133919


Wiberg/Mayer (AO) data.
largest (>0.10) Wiberg bond orders for each atom

 ---------------------------------------------------------------------------
     #   Z sym  total        # sym  WBO       # sym  WBO       # sym  WBO
 ---------------------------------------------------------------------------
     1   8 O    1.901 --     8 H    0.901     2 O    0.873
     2   8 O    2.023 --     3 C    1.029     1 O    0.873
     3   6 C    3.947 --     2 O    1.029     4 C    0.967     9 H    0.956
                             7 C    0.940
     4   6 C    3.996 --     5 C    1.074     3 C    0.967    10 H    0.962
                            11 H    0.936
     5   6 C    3.355 --     6 C    1.074     4 C    1.074    12 H    0.976
     6   6 C    3.998 --     5 C    1.074     7 C    1.002    13 H    0.951
                            14 H    0.941
     7   6 C    3.993 --     6 C    1.002    15 H    0.978    16 H    0.973
                             3 C    0.940
     8   1 H    0.904 --     1 O    0.901
     9   1 H    0.999 --     3 C    0.956
    10   1 H    0.996 --     4 C    0.962
    11   1 H    0.996 --     4 C    0.936
    12   1 H    0.999 --     5 C    0.976
    13   1 H    0.996 --     6 C    0.951
    14   1 H    0.996 --     6 C    0.941
    15   1 H    0.997 --     7 C    0.978
    16   1 H    0.998 --     7 C    0.973
 ---------------------------------------------------------------------------

Topologies differ in total number of bonds
Writing topology from bond orders to xtbtopo.mol

molecular dipole:
                 x           y           z       tot (Debye)
 q only:       -0.569       0.398      -0.208
   full:       -0.483       0.443      -0.189       1.733
molecular quadrupole (traceless):
                xx          xy          yy          xz          yz          zz
 q only:       -1.518       1.177      -0.858       1.784      -0.184       2.376
  q+dip:       -1.517       1.848      -2.092       2.392      -0.189       3.609
   full:       -1.338       1.404      -1.934       2.876      -0.235       3.272

           -------------------------------------------------
          |                Geometry Summary                 |
           -------------------------------------------------

      molecular mass/u    :      101.1239561
   center of mass at/Å    :        0.3135932      -0.1260515       0.1443725
  moments of inertia/u·Å² :        0.1056343E+03   0.2400044E+03   0.2664948E+03
rotational constants/cm⁻¹ :        0.1595848E+00   0.7023884E-01   0.6325689E-01

 * 14 selected distances

     #   Z          #   Z                                           value/Å
     2   8 O        3   6 C                                       1.3767875
     3   6 C        4   6 C                                       1.5310625
     4   6 C        5   6 C                                       1.4744668
     5   6 C        6   6 C                                       1.4812929
     3   6 C        7   6 C                                       1.5403987 (max)
     6   6 C        7   6 C                                       1.5349989
     3   6 C        9   1 H                                       1.0958035
     4   6 C       10   1 H                                       1.0893239
     4   6 C       11   1 H                                       1.0976511
     5   6 C       12   1 H                                       1.0731757 (min)
     6   6 C       13   1 H                                       1.0941154
     6   6 C       14   1 H                                       1.0979166
     7   6 C       15   1 H                                       1.0877309
     7   6 C       16   1 H                                       1.0890533

 * 3 distinct bonds (by element types)

   Z      Z             #   av. dist./Å        max./Å        min./Å
   1 H    6 C           8     1.0905963     1.0979166     1.0731757
   6 C    6 C           5     1.5124440     1.5403987     1.4744668
   6 C    8 O           1     1.3767875     1.3767875     1.3767875


optimized geometry written to: xtbopt.xyz


           -------------------------------------------------
          | TOTAL ENERGY              -23.249589577821 Eh   |
          | GRADIENT NORM               0.000547222637 Eh/α |
          | HOMO-LUMO GAP               0.723788737932 eV   |
           -------------------------------------------------

------------------------------------------------------------------------
 * finished run on 2025/05/23 at 13:10:39.649     
------------------------------------------------------------------------
 total:
 * wall-time:     0 d,  0 h,  0 min,  0.176 sec
 *  cpu-time:     0 d,  0 h,  0 min,  2.626 sec
 * ratio c/w:    14.891 speedup
 SCF:
 * wall-time:     0 d,  0 h,  0 min,  0.010 sec
 *  cpu-time:     0 d,  0 h,  0 min,  0.148 sec
 * ratio c/w:    15.431 speedup
 ANC optimizer:
 * wall-time:     0 d,  0 h,  0 min,  0.160 sec
 *  cpu-time:     0 d,  0 h,  0 min,  2.381 sec
 * ratio c/w:    14.912 speedup

