
                                 *****************
                                 * O   R   C   A *
                                 *****************

                                            #,                                       
                                            ###                                      
                                            ####                                     
                                            #####                                    
                                            ######                                   
                                           ########,                                 
                                     ,,################,,,,,                         
                               ,,#################################,,                 
                          ,,##########################################,,             
                       ,#########################################, ''#####,          
                    ,#############################################,,   '####,        
                  ,##################################################,,,,####,       
                ,###########''''           ''''###############################       
              ,#####''   ,,,,##########,,,,          '''####'''          '####       
            ,##' ,,,,###########################,,,                        '##       
           ' ,,###''''                  '''############,,,                           
         ,,##''                                '''############,,,,        ,,,,,,###''
      ,#''                                            '''#######################'''  
     '                                                          ''''####''''         
             ,#######,   #######,   ,#######,      ##                                
            ,#'     '#,  ##    ##  ,#'     '#,    #''#        ######   ,####,        
            ##       ##  ##   ,#'  ##            #'  '#       #        #'  '#        
            ##       ##  #######   ##           ,######,      #####,   #    #        
            '#,     ,#'  ##    ##  '#,     ,#' ,#      #,         ##   #,  ,#        
             '#######'   ##     ##  '#######'  #'      '#     #####' # '####'        



                  #######################################################
                  #                        -***-                        #
                  #          Department of theory and spectroscopy      #
                  #    Directorship and core code : Frank Neese         #
                  #        Max Planck Institute fuer Kohlenforschung    #
                  #                Kaiser Wilhelm Platz 1               #
                  #                 D-45470 Muelheim/Ruhr               #
                  #                      Germany                        #
                  #                                                     #
                  #                  All rights reserved                #
                  #                        -***-                        #
                  #######################################################


                         Program Version 5.0.4 -  RELEASE  -


 With contributions from (in alphabetic order):
   Daniel Aravena         : Magnetic Suceptibility
   Michael Atanasov       : Ab Initio Ligand Field Theory (pilot matlab implementation)
   Alexander A. Auer      : GIAO ZORA, VPT2 properties, NMR spectrum
   Ute Becker             : Parallelization
   Giovanni Bistoni       : ED, misc. LED, open-shell LED, HFLD
   Martin Brehm           : Molecular dynamics
   Dmytro Bykov           : SCF Hessian
   Vijay G. Chilkuri      : MRCI spin determinant printing, contributions to CSF-ICE
   Dipayan Datta          : RHF DLPNO-CCSD density
   Achintya Kumar Dutta   : EOM-CC, STEOM-CC
   Dmitry Ganyushin       : Spin-Orbit,Spin-Spin,Magnetic field MRCI
   Miquel Garcia          : C-PCM and meta-GGA Hessian, CC/C-PCM, Gaussian charge scheme
   Yang Guo               : DLPNO-NEVPT2, F12-NEVPT2, CIM, IAO-localization
   Andreas Hansen         : Spin unrestricted coupled pair/coupled cluster methods
   Benjamin Helmich-Paris : MC-RPA, TRAH-SCF, COSX integrals
   Lee Huntington         : MR-EOM, pCC
   Robert Izsak           : Overlap fitted RIJCOSX, COSX-SCS-MP3, EOM
   Marcus Kettner         : VPT2
   Christian Kollmar      : KDIIS, OOCD, Brueckner-CCSD(T), CCSD density, CASPT2, CASPT2-K
   Simone Kossmann        : Meta GGA functionals, TD-DFT gradient, OOMP2, MP2 Hessian
   Martin Krupicka        : Initial AUTO-CI
   Lucas Lang             : DCDCAS
   Marvin Lechner         : AUTO-CI (C++ implementation), FIC-MRCC
   Dagmar Lenk            : GEPOL surface, SMD
   Dimitrios Liakos       : Extrapolation schemes; Compound Job, initial MDCI parallelization
   Dimitrios Manganas     : Further ROCIS development; embedding schemes
   Dimitrios Pantazis     : SARC Basis sets
   Anastasios Papadopoulos: AUTO-CI, single reference methods and gradients
   Taras Petrenko         : DFT Hessian,TD-DFT gradient, ASA, ECA, R-Raman, ABS, FL, XAS/XES, NRVS
   Peter Pinski           : DLPNO-MP2, DLPNO-MP2 Gradient
   Christoph Reimann      : Effective Core Potentials
   Marius Retegan         : Local ZFS, SOC
   Christoph Riplinger    : Optimizer, TS searches, QM/MM, DLPNO-CCSD(T), (RO)-DLPNO pert. Triples
   Tobias Risthaus        : Range-separated hybrids, TD-DFT gradient, RPA, STAB
   Michael Roemelt        : Original ROCIS implementation
   Masaaki Saitow         : Open-shell DLPNO-CCSD energy and density
   Barbara Sandhoefer     : DKH picture change effects
   Avijit Sen             : IP-ROCIS
   Kantharuban Sivalingam : CASSCF convergence, NEVPT2, FIC-MRCI
   Bernardo de Souza      : ESD, SOC TD-DFT
   Georgi Stoychev        : AutoAux, RI-MP2 NMR, DLPNO-MP2 response
   Willem Van den Heuvel  : Paramagnetic NMR
   Boris Wezisla          : Elementary symmetry handling
   Frank Wennmohs         : Technical directorship


 We gratefully acknowledge several colleagues who have allowed us to
 interface, adapt or use parts of their codes:
   Stefan Grimme, W. Hujo, H. Kruse, P. Pracht,  : VdW corrections, initial TS optimization,
                  C. Bannwarth, S. Ehlert          DFT functionals, gCP, sTDA/sTD-DF
   Ed Valeev, F. Pavosevic, A. Kumar             : LibInt (2-el integral package), F12 methods
   Garnet Chan, S. Sharma, J. Yang, R. Olivares  : DMRG
   Ulf Ekstrom                                   : XCFun DFT Library
   Mihaly Kallay                                 : mrcc  (arbitrary order and MRCC methods)
   Jiri Pittner, Ondrej Demel                    : Mk-CCSD
   Frank Weinhold                                : gennbo (NPA and NBO analysis)
   Christopher J. Cramer and Donald G. Truhlar   : smd solvation model
   Lars Goerigk                                  : TD-DFT with DH, B97 family of functionals
   V. Asgeirsson, H. Jonsson                     : NEB implementation
   FAccTs GmbH                                   : IRC, NEB, NEB-TS, DLPNO-Multilevel, CI-OPT
                                                   MM, QMMM, 2- and 3-layer-ONIOM, Crystal-QMMM,
                                                   LR-CPCM, SF, NACMEs, symmetry and pop. for TD-DFT,
                                                   nearIR, NL-DFT gradient (VV10), updates on ESD,
                                                   ML-optimized integration grids
   S Lehtola, MJT Oliveira, MAL Marques          : LibXC Library
   Liviu Ungur et al                             : ANISO software


 Your calculation uses the libint2 library for the computation of 2-el integrals
 For citations please refer to: http://libint.valeyev.net

 Your ORCA version has been built with support for libXC version: 5.1.0
 For citations please refer to: https://tddft.org/programs/libxc/

 This ORCA versions uses:
   CBLAS   interface :  Fast vector & matrix operations
   LAPACKE interface :  Fast linear algebra routines
   SCALAPACK package :  Parallel linear algebra routines
   Shared memory     :  Shared parallel matrices
   BLAS/LAPACK       :  OpenBLAS 0.3.15  USE64BITINT DYNAMIC_ARCH NO_AFFINITY SkylakeX SINGLE_THREADED
        Core in use  :  SkylakeX
   Copyright (c) 2011-2014, The OpenBLAS Project


Your calculation utilizes the atom-pairwise dispersion correction
with the Becke-Johnson damping scheme (D3BJ)
Cite in your paper:
S.Grimme, S.Ehrlich, L.Goerigk, J Comput Chem, (2011), 32, 1456–1465 
S.Grimme, J.Antony, S.Ehrlich and H.Krieg, J.Chem.Phys., 132, (2010), 154104 
   

================================================================================

----- Orbital basis set information -----
Your calculation utilizes the basis: def2-SVP
   F. Weigend and R. Ahlrichs, Phys. Chem. Chem. Phys. 7, 3297 (2005).

----- AuxJ basis set information -----
Your calculation utilizes the auxiliary basis: def2/J
   F. Weigend, Phys. Chem. Chem. Phys. 8, 1057 (2006).

================================================================================
                                        WARNINGS
                       Please study these warnings very carefully!
================================================================================


WARNING: your system is open-shell and RHF/RKS was chosen
  ===> : WILL SWITCH to UHF/UKS


INFO   : the flag for use of the SHARK integral package has been found!

================================================================================
                                       INPUT FILE
================================================================================
NAME = hy-zjC_ll_ad_1-5_0-1_hess_orca.inp
|  1> ! Freq PBE0 RIJCOSX D3BJ def2-SVP def2/J 
|  2> %output 
|  3> xyzfile=True 
|  4> end 
|  5> %scf 
|  6> maxiter 250 
|  7> end
|  8> %output
|  9> Print[P_Hirshfeld] = 1
| 10> end
| 11> % maxcore
| 12> 4000
| 13> %pal nprocs 8
| 14> end
| 15> *xyz 0 2
| 16> O   -2.56964727   0.64852322   1.71793873 
| 17> O   -0.33359164  -0.43739802   0.82061501 
| 18> C   -0.67044286   0.07574729  -0.42267668 
| 19> C    0.18179396   0.83325501   0.52053050 
| 20> C    1.57448203   0.45236166   0.23734538 
| 21> C    1.45750820  -0.60729035  -0.56391369 
| 22> C    0.20401677  -0.68818428  -1.37079370 
| 23> H   -2.88963145   0.11695975   2.44623446 
| 24> H   -1.70287861   0.33791018  -0.59150802 
| 25> H   -0.16864151   1.67106077   1.09878183 
| 26> H    2.42776006   0.76142708   0.80821294 
| 27> H    2.30097819  -1.22318033  -0.84843776 
| 28> H    0.34001886  -0.23168151  -2.35288583 
| 29> H   -0.15173473  -1.70940048  -1.49939318 
| 30> *
| 31> 
| 32>                          ****END OF INPUT****
================================================================================

                       ****************************
                       * Single Point Calculation *
                       ****************************

---------------------------------
CARTESIAN COORDINATES (ANGSTROEM)
---------------------------------
  O     -2.569647    0.648523    1.717939
  O     -0.333592   -0.437398    0.820615
  C     -0.670443    0.075747   -0.422677
  C      0.181794    0.833255    0.520531
  C      1.574482    0.452362    0.237345
  C      1.457508   -0.607290   -0.563914
  C      0.204017   -0.688184   -1.370794
  H     -2.889631    0.116960    2.446234
  H     -1.702879    0.337910   -0.591508
  H     -0.168642    1.671061    1.098782
  H      2.427760    0.761427    0.808213
  H      2.300978   -1.223180   -0.848438
  H      0.340019   -0.231682   -2.352886
  H     -0.151735   -1.709400   -1.499393

----------------------------
CARTESIAN COORDINATES (A.U.)
----------------------------
  NO LB      ZA    FRAG     MASS         X           Y           Z
   0 O     8.0000    0    15.999   -4.855930    1.225531    3.246434
   1 O     8.0000    0    15.999   -0.630397   -0.826562    1.550738
   2 C     6.0000    0    12.011   -1.266953    0.143142   -0.798743
   3 C     6.0000    0    12.011    0.343541    1.574624    0.983660
   4 C     6.0000    0    12.011    2.975340    0.854840    0.448518
   5 C     6.0000    0    12.011    2.754291   -1.147612   -1.065642
   6 C     6.0000    0    12.011    0.385536   -1.300480   -2.590425
   7 H     1.0000    0     1.008   -5.460612    0.221022    4.622713
   8 H     1.0000    0     1.008   -3.217974    0.638558   -1.117788
   9 H     1.0000    0     1.008   -0.318686    3.157847    2.076397
  10 H     1.0000    0     1.008    4.587802    1.438889    1.527301
  11 H     1.0000    0     1.008    4.348219   -2.311476   -1.603315
  12 H     1.0000    0     1.008    0.642543   -0.437815   -4.446310
  13 H     1.0000    0     1.008   -0.286737   -3.230299   -2.833442

--------------------------------
INTERNAL COORDINATES (ANGSTROEM)
--------------------------------
 O      0   0   0     0.000000000000     0.00000000     0.00000000
 O      1   0   0     2.642793896317     0.00000000     0.00000000
 C      2   1   0     1.386564488227    86.95242858     0.00000000
 C      2   1   3     1.403649583221    90.64678754    63.97497717
 C      4   2   1     1.471344153006    98.87898717   169.32086891
 C      5   4   2     1.333627142967   103.78661435    46.55698858
 C      6   5   4     1.492929986145   116.19427861    26.20597013
 H      1   2   3     0.956746710695   108.24889311   150.27578987
 H      3   2   1     1.078497556853   117.57387392   340.05688401
 H      4   2   1     1.076614188449   118.04150919    27.50033118
 H      5   4   2     1.072144860259   125.18441833   244.28245851
 H      6   5   4     1.082458330794   122.79692753   188.98440340
 H      7   6   5     1.091511016577   111.03941576    92.66029371
 H      7   6   5     1.089026851437   112.88670244   215.49778037

---------------------------
INTERNAL COORDINATES (A.U.)
---------------------------
 O      0   0   0     0.000000000000     0.00000000     0.00000000
 O      1   0   0     4.994156692439     0.00000000     0.00000000
 C      2   1   0     2.620227149771    86.95242858     0.00000000
 C      2   1   3     2.652513300281    90.64678754    63.97497717
 C      4   2   1     2.780437497927    98.87898717   169.32086891
 C      5   4   2     2.520190064972   103.78661435    46.55698858
 C      6   5   4     2.821228810934   116.19427861    26.20597013
 H      1   2   3     1.807989262743   108.24889311   150.27578987
 H      3   2   1     2.038065018555   117.57387392   340.05688401
 H      4   2   1     2.034505968063   118.04150919    27.50033118
 H      5   4   2     2.026060161782   125.18441833   244.28245851
 H      6   5   4     2.045549796581   122.79692753   188.98440340
 H      7   6   5     2.062656893489   111.03941576    92.66029371
 H      7   6   5     2.057962501703   112.88670244   215.49778037

---------------------
BASIS SET INFORMATION
---------------------
There are 3 groups of distinct atoms

 Group   1 Type O   : 7s4p1d contracted to 3s2p1d pattern {511/31/1}
 Group   2 Type C   : 7s4p1d contracted to 3s2p1d pattern {511/31/1}
 Group   3 Type H   : 4s1p contracted to 2s1p pattern {31/1}

Atom   0O    basis set group =>   1
Atom   1O    basis set group =>   1
Atom   2C    basis set group =>   2
Atom   3C    basis set group =>   2
Atom   4C    basis set group =>   2
Atom   5C    basis set group =>   2
Atom   6C    basis set group =>   2
Atom   7H    basis set group =>   3
Atom   8H    basis set group =>   3
Atom   9H    basis set group =>   3
Atom  10H    basis set group =>   3
Atom  11H    basis set group =>   3
Atom  12H    basis set group =>   3
Atom  13H    basis set group =>   3
---------------------------------
AUXILIARY/J BASIS SET INFORMATION
---------------------------------
There are 3 groups of distinct atoms

 Group   1 Type O   : 12s5p4d2f1g contracted to 6s4p3d1f1g pattern {711111/2111/211/2/1}
 Group   2 Type C   : 12s5p4d2f1g contracted to 6s4p3d1f1g pattern {711111/2111/211/2/1}
 Group   3 Type H   : 5s2p1d contracted to 3s1p1d pattern {311/2/1}

Atom   0O    basis set group =>   1
Atom   1O    basis set group =>   1
Atom   2C    basis set group =>   2
Atom   3C    basis set group =>   2
Atom   4C    basis set group =>   2
Atom   5C    basis set group =>   2
Atom   6C    basis set group =>   2
Atom   7H    basis set group =>   3
Atom   8H    basis set group =>   3
Atom   9H    basis set group =>   3
Atom  10H    basis set group =>   3
Atom  11H    basis set group =>   3
Atom  12H    basis set group =>   3
Atom  13H    basis set group =>   3


           ************************************************************
           *        Program running with 8 parallel MPI-processes     *
           *              working on a common directory               *
           ************************************************************
------------------------------------------------------------------------------
                           ORCA GTO INTEGRAL CALCULATION
                           -- RI-GTO INTEGRALS CHOSEN --
------------------------------------------------------------------------------
------------------------------------------------------------------------------
                   ___                                                        
                  /   \      - P O W E R E D   B Y -                         
                 /     \                                                     
                 |  |  |   _    _      __       _____    __    __             
                 |  |  |  | |  | |    /  \     |  _  \  |  |  /  |          
                  \  \/   | |  | |   /    \    | | | |  |  | /  /          
                 / \  \   | |__| |  /  /\  \   | |_| |  |  |/  /          
                |  |  |   |  __  | /  /__\  \  |    /   |      \           
                |  |  |   | |  | | |   __   |  |    \   |  |\   \          
                \     /   | |  | | |  |  |  |  | |\  \  |  | \   \       
                 \___/    |_|  |_| |__|  |__|  |_| \__\ |__|  \__/        
                                                                              
                      - O R C A' S   B I G   F R I E N D -                    
                                      &                                       
                       - I N T E G R A L  F E E D E R -                       
                                                                              
 v1 FN, 2020, v2 2021                                                         
------------------------------------------------------------------------------


Reading SHARK input file hy-zjC_ll_ad_1-5_0-1_hess_orca.SHARKINP.tmp ... ok
----------------------
SHARK INTEGRAL PACKAGE
----------------------

Number of atoms                             ...     14
Number of basis functions                   ...    133
Number of shells                            ...     63
Maximum angular momentum                    ...      2
Integral batch strategy                     ... SHARK/LIBINT Hybrid
RI-J (if used) integral strategy            ... SPLIT-RIJ (Revised 2003 algorithm where possible)
Printlevel                                  ...      1
Contraction scheme used                     ... SEGMENTED contraction
Coulomb Range Separation                    ... NOT USED
Exchange Range Separation                   ... NOT USED
Finite Nucleus Model                        ... NOT USED
Auxiliary Coulomb fitting basis             ... AVAILABLE
   # of basis functions in Aux-J            ...    420
   # of shells in Aux-J                     ...    140
   Maximum angular momentum in Aux-J        ...      4
Auxiliary J/K fitting basis                 ... NOT available
Auxiliary Correlation fitting basis         ... NOT available
Auxiliary 'external' fitting basis          ... NOT available
Integral threshold                          ...     1.000000e-10
Primitive cut-off                           ...     1.000000e-11
Primitive pair pre-selection threshold      ...     1.000000e-11

Calculating pre-screening integrals         ... done (  0.0 sec) Dimension = 63
Organizing shell pair data                  ... done (  0.0 sec)
Shell pair information
Total number of shell pairs                 ...      2016
Shell pairs after pre-screening             ...      1908
Total number of primitive shell pairs       ...      7252
Primitive shell pairs kept                  ...      5222
          la=0 lb=0:    597 shell pairs
          la=1 lb=0:    698 shell pairs
          la=1 lb=1:    219 shell pairs
          la=2 lb=0:    233 shell pairs
          la=2 lb=1:    136 shell pairs
          la=2 lb=2:     25 shell pairs

Calculating one electron integrals          ... done (  0.0 sec)
Calculating RI/J V-Matrix + Cholesky decomp.... done (  0.0 sec)
Calculating Nuclear repulsion               ... done (  0.0 sec) ENN=    299.163607233244 Eh

SHARK setup successfully completed in   0.1 seconds

Maximum memory used throughout the entire GTOINT-calculation: 10.7 MB


           ************************************************************
           *        Program running with 8 parallel MPI-processes     *
           *              working on a common directory               *
           ************************************************************
-------------------------------------------------------------------------------
                                 ORCA SCF
-------------------------------------------------------------------------------

------------
SCF SETTINGS
------------
Hamiltonian:
 Density Functional     Method          .... DFT(GTOs)
 Exchange Functional    Exchange        .... PBE
   PBE kappa parameter   XKappa         ....  0.804000
   PBE mue parameter    XMuePBE         ....  0.219520
 Correlation Functional Correlation     .... PBE
   PBE beta parameter  CBetaPBE         ....  0.066725
 LDA part of GGA corr.  LDAOpt          .... PW91-LDA
 Gradients option       PostSCFGGA      .... off
 Hybrid DFT is turned on
   Fraction HF Exchange ScalHFX         ....  0.250000
   Scaling of DF-GGA-X  ScalDFX         ....  0.750000
   Scaling of DF-GGA-C  ScalDFC         ....  1.000000
   Scaling of DF-LDA-C  ScalLDAC        ....  1.000000
   Perturbative correction              ....  0.000000
   Density functional embedding theory  .... OFF
   NL short-range parameter             ....  6.900000
 RI-approximation to the Coulomb term is turned on
   Number of AuxJ basis functions       .... 420
   RIJ-COSX (HFX calculated with COS-X)).... on


General Settings:
 Integral files         IntName         .... hy-zjC_ll_ad_1-5_0-1_hess_orca
 Hartree-Fock type      HFTyp           .... UHF
 Total Charge           Charge          ....    0
 Multiplicity           Mult            ....    2
 Number of Electrons    NEL             ....   53
 Basis Dimension        Dim             ....  133
 Nuclear Repulsion      ENuc            ....    299.1636072332 Eh

Convergence Acceleration:
 DIIS                   CNVDIIS         .... on
   Start iteration      DIISMaxIt       ....    12
   Startup error        DIISStart       ....  0.200000
   # of expansion vecs  DIISMaxEq       ....     5
   Bias factor          DIISBfac        ....   1.050
   Max. coefficient     DIISMaxC        ....  10.000
 Trust-Rad. Augm. Hess. CNVTRAH         .... auto
   Auto Start mean grad. ratio tolernc. ....  1.125000
   Auto Start start iteration           ....    20
   Auto Start num. interpolation iter.  ....    10
   Max. Number of Micro iterations      ....    16
   Max. Number of Macro iterations      .... Maxiter - #DIIS iter
   Number of Davidson start vectors     ....     2
   Converg. threshold I  (grad. norm)   ....   5.000e-05
   Converg. threshold II (energy diff.) ....   1.000e-06
   Grad. Scal. Fac. for Micro threshold ....   0.100
   Minimum threshold for Micro iter.    ....   0.010
   NR start threshold (gradient norm)   ....   0.001
   Initial trust radius                 ....   0.400
   Minimum AH scaling param. (alpha)    ....   1.000
   Maximum AH scaling param. (alpha)    .... 1000.000
   Orbital update algorithm             .... Taylor
   White noise on init. David. guess    .... on
   Maximum white noise                  ....   0.010
   Quad. conv. algorithm                .... NR
 SOSCF                  CNVSOSCF        .... off
 Level Shifting         CNVShift        .... on
   Level shift para.    LevelShift      ....    0.2500
   Turn off err/grad.   ShiftErr        ....    0.0010
 Zerner damping         CNVZerner       .... off
 Static damping         CNVDamp         .... on
   Fraction old density DampFac         ....    0.7000
   Max. Damping (<1)    DampMax         ....    0.9800
   Min. Damping (>=0)   DampMin         ....    0.0000
   Turn off err/grad.   DampErr         ....    0.1000
 Fernandez-Rico         CNVRico         .... off

SCF Procedure:
 Maximum # iterations   MaxIter         ....   250
 SCF integral mode      SCFMode         .... Direct
   Integral package                     .... SHARK and LIBINT hybrid scheme
 Reset frequency        DirectResetFreq ....    20
 Integral Threshold     Thresh          ....  1.000e-10 Eh
 Primitive CutOff       TCut            ....  1.000e-11 Eh

Convergence Tolerance:
 Convergence Check Mode ConvCheckMode   .... Total+1el-Energy
 Convergence forced     ConvForced      .... 0
 Energy Change          TolE            ....  1.000e-06 Eh
 1-El. energy change                    ....  1.000e-03 Eh
 DIIS Error             TolErr          ....  1.000e-06


Diagonalization of the overlap matrix:
Smallest eigenvalue                        ... 6.608e-04
Time for diagonalization                   ...    0.003 sec
Threshold for overlap eigenvalues          ... 1.000e-08
Number of eigenvalues below threshold      ... 0
Time for construction of square roots      ...    0.001 sec
Total time needed                          ...    0.004 sec

Time for model grid setup =    0.042 sec

------------------------------
INITIAL GUESS: MODEL POTENTIAL
------------------------------
Loading Hartree-Fock densities                     ... done
Calculating cut-offs                               ... done
Initializing the effective Hamiltonian             ... done
Setting up the integral package (SHARK)            ... done
Starting the Coulomb interaction                   ... done (   0.0 sec)
Reading the grid                                   ... done
Mapping shells                                     ... done
Starting the XC term evaluation                    ... done (   0.0 sec)
  promolecular density results
     # of electrons  =     52.997140507
     EX              =    -43.930211573
     EC              =     -1.759391630
     EX+EC           =    -45.689603202
Transforming the Hamiltonian                       ... done (   0.0 sec)
Diagonalizing the Hamiltonian                      ... done (   0.0 sec)
Back transforming the eigenvectors                 ... done (   0.0 sec)
Now organizing SCF variables                       ... done
                      ------------------
                      INITIAL GUESS DONE (   0.1 sec)
                      ------------------
-------------------
DFT GRID GENERATION
-------------------

General Integration Accuracy     IntAcc      ... 4.388
Radial Grid Type                 RadialGrid  ... OptM3 with GC (2021)
Angular Grid (max. ang.)         AngularGrid ... 4 (Lebedev-302)
Angular grid pruning method      GridPruning ... 4 (adaptive)
Weight generation scheme         WeightScheme... Becke
Basis function cutoff            BFCut       ... 1.0000e-10
Integration weight cutoff        WCut        ... 1.0000e-14
Angular grids for H and He will be reduced by one unit
Partially contracted basis set               ... off
Rotationally invariant grid construction     ... off

Total number of grid points                  ...    64881
Total number of batches                      ...     1019
Average number of points per batch           ...       63
Average number of grid points per atom       ...     4634
Time for grid setup =    0.245 sec

--------------------
COSX GRID GENERATION
--------------------

GRIDX 1
-------
General Integration Accuracy     IntAcc      ... 3.816
Radial Grid Type                 RadialGrid  ... OptM3 with GC (2021)
Angular Grid (max. ang.)         AngularGrid ... 1 (Lebedev-50)
Angular grid pruning method      GridPruning ... 4 (adaptive)
Weight generation scheme         WeightScheme... Becke
Basis function cutoff            BFCut       ... 1.0000e-10
Integration weight cutoff        WCut        ... 1.0000e-14
Angular grids for H and He will be reduced by one unit
Partially contracted basis set               ... on
Rotationally invariant grid construction     ... off

Total number of grid points                  ...     8295
Total number of batches                      ...      137
Average number of points per batch           ...       60
Average number of grid points per atom       ...      592
UseSFitting                                  ... on

GRIDX 2
-------
General Integration Accuracy     IntAcc      ... 4.020
Radial Grid Type                 RadialGrid  ... OptM3 with GC (2021)
Angular Grid (max. ang.)         AngularGrid ... 2 (Lebedev-110)
Angular grid pruning method      GridPruning ... 4 (adaptive)
Weight generation scheme         WeightScheme... Becke
Basis function cutoff            BFCut       ... 1.0000e-10
Integration weight cutoff        WCut        ... 1.0000e-14
Angular grids for H and He will be reduced by one unit
Partially contracted basis set               ... on
Rotationally invariant grid construction     ... off

Total number of grid points                  ...    18059
Total number of batches                      ...      291
Average number of points per batch           ...       62
Average number of grid points per atom       ...     1290
UseSFitting                                  ... on

GRIDX 3
-------
General Integration Accuracy     IntAcc      ... 4.338
Radial Grid Type                 RadialGrid  ... OptM3 with GC (2021)
Angular Grid (max. ang.)         AngularGrid ... 3 (Lebedev-194)
Angular grid pruning method      GridPruning ... 4 (adaptive)
Weight generation scheme         WeightScheme... Becke
Basis function cutoff            BFCut       ... 1.0000e-10
Integration weight cutoff        WCut        ... 1.0000e-14
Angular grids for H and He will be reduced by one unit
Partially contracted basis set               ... on
Rotationally invariant grid construction     ... off

Total number of grid points                  ...    39699
Total number of batches                      ...      628
Average number of points per batch           ...       63
Average number of grid points per atom       ...     2836
UseSFitting                                  ... on

Time for X-Grid setup             =    0.178 sec

--------------
SCF ITERATIONS
--------------
ITER       Energy         Delta-E        Max-DP      RMS-DP      [F,P]     Damp
               ***  Starting incremental Fock matrix formation  ***
  0   -343.9745125442   0.000000000000 0.11963132  0.00358144  0.2147049 0.7000
  1   -344.0443053802  -0.069792835939 0.02342421  0.00118245  0.0400180 0.7000
                               ***Turning on DIIS***
  2   -344.1375059848  -0.093200604685 0.04638372  0.00261461  0.0229785 0.0000
  3   -344.2357164208  -0.098210435917 0.02943734  0.00077096  0.0623176 0.0000
  4   -344.2869064346  -0.051190013868 0.03278142  0.00059512  0.0408150 0.0000
  5   -344.3139983325  -0.027091897891 0.02451714  0.00048676  0.0256125 0.0000
  6   -344.3281453065  -0.014146973998 0.02156994  0.00052473  0.0196070 0.0000
  7   -344.3371089563  -0.008963649744 0.01470931  0.00053842  0.0122277 0.0000
  8   -344.3417741474  -0.004665191142 0.01220456  0.00030058  0.0138353 0.0000
  9   -344.3446606347  -0.002886487346 0.00622590  0.00024004  0.0078040 0.0000
 10   -344.3460489448  -0.001388310067 0.00723037  0.00017833  0.0069512 0.0000
 11   -344.3469271444  -0.000878199538 0.00396318  0.00011731  0.0040940 0.0000
 12   -344.3473428040  -0.000415659623 0.00312096  0.00009056  0.0029637 0.0000
 13   -344.3475276325  -0.000184828508 0.00259065  0.00006477  0.0022130 0.0000
 14   -344.3476468560  -0.000119223541 0.00179501  0.00004528  0.0015226 0.0000
 15   -344.3477034793  -0.000056623238 0.00144166  0.00003577  0.0012177 0.0000
 16   -344.3477367976  -0.000033318378 0.00262456  0.00006564  0.0008460 0.0000
               *** Restarting incremental Fock matrix formation ***
                                   *** Resetting DIIS ***
 17   -344.3477456955  -0.000008897817 0.00100061  0.00001833  0.0003810 0.0000
 18   -344.3477474847  -0.000001789271 0.00040451  0.00000932  0.0004029 0.0000
 19   -344.3477499841  -0.000002499340 0.00050699  0.00000727  0.0003041 0.0000
 20   -344.3477514941  -0.000001510032 0.00091392  0.00001153  0.0002958 0.0000
 21   -344.3477538673  -0.000002373182 0.00221745  0.00002845  0.0002809 0.0000
 22   -344.3477591803  -0.000005313039 0.00452758  0.00005761  0.0002431 0.0000
 23   -344.3477674762  -0.000008295892 0.00381574  0.00004786  0.0001653 0.0000
 24   -344.3477719465  -0.000004470285 0.00381107  0.00004778  0.0001002 0.0000
 25   -344.3477741847  -0.000002238207 0.00077033  0.00000958  0.0000542 0.0000
                 **** Energy Check signals convergence ****

               *****************************************************
               *                     SUCCESS                       *
               *           SCF CONVERGED AFTER  26 CYCLES          *
               *****************************************************

Old exchange energy                            =    -11.213572761 Eh
New exchange energy                            =    -11.213564287 Eh
Exchange energy change after final integration =      0.000008474 Eh
Total energy after final integration           =   -344.347765899 Eh
Final COS-X integration done in                =     0.646 sec

----------------
TOTAL SCF ENERGY
----------------

Total Energy       :         -344.34776590 Eh           -9370.17908 eV

Components:
Nuclear Repulsion  :          299.16360723 Eh            8140.65562 eV
Electronic Energy  :         -643.51137313 Eh          -17510.83470 eV
One Electron Energy:        -1061.65481872 Eh          -28889.09631 eV
Two Electron Energy:          418.14344559 Eh           11378.26161 eV
Max COSX asymmetry :            0.00000050 Eh               0.00001 eV

Virial components:
Potential Energy   :         -686.32293628 Eh          -18675.79656 eV
Kinetic Energy     :          341.97517038 Eh            9305.61747 eV
Virial Ratio       :            2.00693792


DFT components:
N(Alpha)           :       26.999994218305 electrons
N(Beta)            :       25.999996662929 electrons
N(Total)           :       52.999990881235 electrons
E(X)               :      -33.545027062042 Eh       
E(C)               :       -1.773825622379 Eh       
E(XC)              :      -35.318852684421 Eh       
DFET-embed. en.    :        0.000000000000 Eh       

---------------
SCF CONVERGENCE
---------------

  Last Energy change         ...   -1.8851e-07  Tolerance :   1.0000e-06
  Last MAX-Density change    ...    0.0000e+00  Tolerance :   1.0000e-05
  Last RMS-Density change    ...    0.0000e+00  Tolerance :   1.0000e-06
  Last DIIS Error            ...    2.6059e-05  Tolerance :   1.0000e-06

             **** THE GBW FILE WAS UPDATED (hy-zjC_ll_ad_1-5_0-1_hess_orca.gbw) ****
             **** DENSITY hy-zjC_ll_ad_1-5_0-1_hess_orca.scfp WAS UPDATED ****
             **** ENERGY FILE WAS UPDATED (hy-zjC_ll_ad_1-5_0-1_hess_orca.en.tmp) ****
----------------------
UHF SPIN CONTAMINATION
----------------------

Warning: in a DFT calculation there is little theoretical justification to 
         calculate <S**2> as in Hartree-Fock theory. We will do it anyways
         but you should keep in mind that the values have only limited relevance

Expectation value of <S**2>     :     0.752436
Ideal value S*(S+1) for S=0.5   :     0.750000
Deviation                       :     0.002436

             **** THE GBW FILE WAS UPDATED (hy-zjC_ll_ad_1-5_0-1_hess_orca.gbw) ****
             **** DENSITY hy-zjC_ll_ad_1-5_0-1_hess_orca.scfp WAS UPDATED ****
----------------
ORBITAL ENERGIES
----------------
                 SPIN UP ORBITALS
  NO   OCC          E(Eh)            E(eV) 
   0   1.0000     -19.247298      -523.7456 
   1   1.0000     -19.213864      -522.8358 
   2   1.0000     -10.276925      -279.6493 
   3   1.0000     -10.276584      -279.6401 
   4   1.0000     -10.234274      -278.4888 
   5   1.0000     -10.229744      -278.3655 
   6   1.0000     -10.223312      -278.1905 
   7   1.0000      -1.129859       -30.7450 
   8   1.0000      -1.004400       -27.3311 
   9   1.0000      -0.832667       -22.6580 
  10   1.0000      -0.746307       -20.3081 
  11   1.0000      -0.669023       -18.2050 
  12   1.0000      -0.593986       -16.1632 
  13   1.0000      -0.563100       -15.3227 
  14   1.0000      -0.556360       -15.1393 
  15   1.0000      -0.470045       -12.7906 
  16   1.0000      -0.466138       -12.6843 
  17   1.0000      -0.459501       -12.5037 
  18   1.0000      -0.430811       -11.7230 
  19   1.0000      -0.408029       -11.1030 
  20   1.0000      -0.396689       -10.7944 
  21   1.0000      -0.391365       -10.6496 
  22   1.0000      -0.366610        -9.9760 
  23   1.0000      -0.327684        -8.9167 
  24   1.0000      -0.318216        -8.6591 
  25   1.0000      -0.296070        -8.0565 
  26   1.0000      -0.232474        -6.3259 
  27   0.0000       0.004304         0.1171 
  28   0.0000       0.077467         2.1080 
  29   0.0000       0.095988         2.6120 
  30   0.0000       0.117533         3.1982 
  31   0.0000       0.126202         3.4341 
  32   0.0000       0.141543         3.8516 
  33   0.0000       0.151547         4.1238 
  34   0.0000       0.154515         4.2046 
  35   0.0000       0.166432         4.5288 
  36   0.0000       0.183770         5.0006 
  37   0.0000       0.215507         5.8642 
  38   0.0000       0.239441         6.5155 
  39   0.0000       0.315461         8.5841 
  40   0.0000       0.325380         8.8540 
  41   0.0000       0.400845        10.9076 
  42   0.0000       0.413676        11.2567 
  43   0.0000       0.463275        12.6064 
  44   0.0000       0.489798        13.3281 
  45   0.0000       0.495734        13.4896 
  46   0.0000       0.513121        13.9627 
  47   0.0000       0.526228        14.3194 
  48   0.0000       0.550612        14.9829 
  49   0.0000       0.571976        15.5642 
  50   0.0000       0.586092        15.9484 
  51   0.0000       0.606716        16.5096 
  52   0.0000       0.615765        16.7558 
  53   0.0000       0.633576        17.2405 
  54   0.0000       0.654435        17.8081 
  55   0.0000       0.655917        17.8484 
  56   0.0000       0.684785        18.6339 
  57   0.0000       0.690996        18.8029 
  58   0.0000       0.697071        18.9683 
  59   0.0000       0.700103        19.0508 
  60   0.0000       0.720209        19.5979 
  61   0.0000       0.738611        20.0986 
  62   0.0000       0.768376        20.9086 
  63   0.0000       0.821724        22.3602 
  64   0.0000       0.857264        23.3273 
  65   0.0000       0.885721        24.1017 
  66   0.0000       0.920818        25.0567 
  67   0.0000       0.989030        26.9129 
  68   0.0000       0.992753        27.0142 
  69   0.0000       1.030188        28.0328 
  70   0.0000       1.038405        28.2564 
  71   0.0000       1.060828        28.8666 
  72   0.0000       1.108650        30.1679 
  73   0.0000       1.137432        30.9511 
  74   0.0000       1.200087        32.6560 
  75   0.0000       1.253507        34.1096 
  76   0.0000       1.307332        35.5743 
  77   0.0000       1.331503        36.2320 
  78   0.0000       1.379732        37.5444 
  79   0.0000       1.458332        39.6832 
  80   0.0000       1.493803        40.6485 
  81   0.0000       1.510243        41.0958 
  82   0.0000       1.555378        42.3240 
  83   0.0000       1.577181        42.9173 
  84   0.0000       1.634608        44.4799 
  85   0.0000       1.655650        45.0525 
  86   0.0000       1.668727        45.4084 
  87   0.0000       1.712968        46.6122 
  88   0.0000       1.727132        46.9977 
  89   0.0000       1.756867        47.8068 
  90   0.0000       1.794424        48.8287 
  91   0.0000       1.800405        48.9915 
  92   0.0000       1.829684        49.7882 
  93   0.0000       1.858198        50.5641 
  94   0.0000       1.882403        51.2228 
  95   0.0000       1.903209        51.7889 
  96   0.0000       1.978366        53.8341 
  97   0.0000       1.982708        53.9522 
  98   0.0000       2.014074        54.8058 
  99   0.0000       2.020533        54.9815 
 100   0.0000       2.059370        56.0383 
 101   0.0000       2.124930        57.8223 
 102   0.0000       2.145567        58.3839 
 103   0.0000       2.181980        59.3747 
 104   0.0000       2.227315        60.6083 
 105   0.0000       2.236497        60.8582 
 106   0.0000       2.272770        61.8452 
 107   0.0000       2.296015        62.4777 
 108   0.0000       2.313850        62.9631 
 109   0.0000       2.414179        65.6932 
 110   0.0000       2.450457        66.6803 
 111   0.0000       2.508019        68.2467 
 112   0.0000       2.537665        69.0534 
 113   0.0000       2.599339        70.7316 
 114   0.0000       2.609945        71.0202 
 115   0.0000       2.637195        71.7617 
 116   0.0000       2.706874        73.6578 
 117   0.0000       2.764870        75.2359 
 118   0.0000       2.794200        76.0340 
 119   0.0000       2.831738        77.0555 
 120   0.0000       2.846646        77.4612 
 121   0.0000       2.927790        79.6692 
 122   0.0000       2.940605        80.0179 
 123   0.0000       2.948781        80.2404 
 124   0.0000       2.990653        81.3798 
 125   0.0000       3.021500        82.2192 
 126   0.0000       3.074636        83.6651 
 127   0.0000       3.142690        85.5169 
 128   0.0000       3.210053        87.3500 
 129   0.0000       3.384937        92.1088 
 130   0.0000       3.439785        93.6013 
 131   0.0000       3.516775        95.6963 
 132   0.0000       3.718894       101.1963 

                 SPIN DOWN ORBITALS
  NO   OCC          E(Eh)            E(eV) 
   0   1.0000     -19.221259      -523.0371 
   1   1.0000     -19.211822      -522.7802 
   2   1.0000     -10.276974      -279.6507 
   3   1.0000     -10.276637      -279.6415 
   4   1.0000     -10.234268      -278.4886 
   5   1.0000     -10.229654      -278.3630 
   6   1.0000     -10.223186      -278.1870 
   7   1.0000      -1.127215       -30.6731 
   8   1.0000      -0.931556       -25.3489 
   9   1.0000      -0.831830       -22.6352 
  10   1.0000      -0.746124       -20.3031 
  11   1.0000      -0.668042       -18.1783 
  12   1.0000      -0.593727       -16.1561 
  13   1.0000      -0.561712       -15.2850 
  14   1.0000      -0.555338       -15.1115 
  15   1.0000      -0.465921       -12.6783 
  16   1.0000      -0.463902       -12.6234 
  17   1.0000      -0.438128       -11.9221 
  18   1.0000      -0.429314       -11.6822 
  19   1.0000      -0.400188       -10.8897 
  20   1.0000      -0.391253       -10.6465 
  21   1.0000      -0.367382        -9.9970 
  22   1.0000      -0.317523        -8.6402 
  23   1.0000      -0.301302        -8.1988 
  24   1.0000      -0.293417        -7.9843 
  25   1.0000      -0.230488        -6.2719 
  26   0.0000      -0.116755        -3.1771 
  27   0.0000       0.004948         0.1346 
  28   0.0000       0.082752         2.2518 
  29   0.0000       0.098396         2.6775 
  30   0.0000       0.117798         3.2055 
  31   0.0000       0.126600         3.4450 
  32   0.0000       0.142111         3.8670 
  33   0.0000       0.151714         4.1283 
  34   0.0000       0.154920         4.2156 
  35   0.0000       0.166713         4.5365 
  36   0.0000       0.185644         5.0516 
  37   0.0000       0.215987         5.8773 
  38   0.0000       0.239683         6.5221 
  39   0.0000       0.315731         8.5915 
  40   0.0000       0.325743         8.8639 
  41   0.0000       0.401169        10.9164 
  42   0.0000       0.413854        11.2615 
  43   0.0000       0.463565        12.6143 
  44   0.0000       0.490405        13.3446 
  45   0.0000       0.496007        13.4970 
  46   0.0000       0.513794        13.9810 
  47   0.0000       0.527956        14.3664 
  48   0.0000       0.553946        15.0736 
  49   0.0000       0.573719        15.6117 
  50   0.0000       0.586429        15.9576 
  51   0.0000       0.612407        16.6645 
  52   0.0000       0.616473        16.7751 
  53   0.0000       0.636823        17.3288 
  54   0.0000       0.656140        17.8545 
  55   0.0000       0.657594        17.8941 
  56   0.0000       0.685107        18.6427 
  57   0.0000       0.691490        18.8164 
  58   0.0000       0.697765        18.9872 
  59   0.0000       0.700443        19.0600 
  60   0.0000       0.720430        19.6039 
  61   0.0000       0.738938        20.1075 
  62   0.0000       0.769795        20.9472 
  63   0.0000       0.823246        22.4017 
  64   0.0000       0.859638        23.3919 
  65   0.0000       0.907929        24.7060 
  66   0.0000       0.964751        26.2522 
  67   0.0000       0.995665        27.0934 
  68   0.0000       1.005973        27.3739 
  69   0.0000       1.038937        28.2709 
  70   0.0000       1.055163        28.7125 
  71   0.0000       1.071728        29.1632 
  72   0.0000       1.111986        30.2587 
  73   0.0000       1.148563        31.2540 
  74   0.0000       1.207200        32.8496 
  75   0.0000       1.254847        34.1461 
  76   0.0000       1.320944        35.9447 
  77   0.0000       1.332846        36.2686 
  78   0.0000       1.381926        37.6041 
  79   0.0000       1.457959        39.6731 
  80   0.0000       1.503221        40.9047 
  81   0.0000       1.519820        41.3564 
  82   0.0000       1.555708        42.3330 
  83   0.0000       1.577311        42.9208 
  84   0.0000       1.635596        44.5068 
  85   0.0000       1.656747        45.0824 
  86   0.0000       1.670887        45.4671 
  87   0.0000       1.713331        46.6221 
  88   0.0000       1.727420        47.0055 
  89   0.0000       1.757072        47.8123 
  90   0.0000       1.795086        48.8468 
  91   0.0000       1.800897        49.0049 
  92   0.0000       1.829806        49.7915 
  93   0.0000       1.858464        50.5714 
  94   0.0000       1.882619        51.2287 
  95   0.0000       1.903415        51.7946 
  96   0.0000       1.978835        53.8468 
  97   0.0000       1.982817        53.9552 
  98   0.0000       2.014412        54.8149 
  99   0.0000       2.020981        54.9937 
 100   0.0000       2.060019        56.0560 
 101   0.0000       2.125492        57.8376 
 102   0.0000       2.145780        58.3896 
 103   0.0000       2.182761        59.3960 
 104   0.0000       2.236906        60.8693 
 105   0.0000       2.244821        61.0847 
 106   0.0000       2.273309        61.8599 
 107   0.0000       2.296528        62.4917 
 108   0.0000       2.314204        62.9727 
 109   0.0000       2.414338        65.6975 
 110   0.0000       2.451522        66.7093 
 111   0.0000       2.508328        68.2551 
 112   0.0000       2.538097        69.0651 
 113   0.0000       2.626532        71.4716 
 114   0.0000       2.692104        73.2559 
 115   0.0000       2.699751        73.4640 
 116   0.0000       2.709283        73.7233 
 117   0.0000       2.765533        75.2540 
 118   0.0000       2.794986        76.0554 
 119   0.0000       2.832597        77.0789 
 120   0.0000       2.847922        77.4959 
 121   0.0000       2.930477        79.7423 
 122   0.0000       2.944458        80.1228 
 123   0.0000       3.001179        81.6662 
 124   0.0000       3.020048        82.1797 
 125   0.0000       3.023453        82.2723 
 126   0.0000       3.074858        83.6711 
 127   0.0000       3.144266        85.5598 
 128   0.0000       3.211991        87.4027 
 129   0.0000       3.388022        92.1928 
 130   0.0000       3.440145        93.6111 
 131   0.0000       3.517584        95.7183 
 132   0.0000       3.744673       101.8977 

                    ********************************
                    * MULLIKEN POPULATION ANALYSIS *
                    ********************************

--------------------------------------------
MULLIKEN ATOMIC CHARGES AND SPIN POPULATIONS
--------------------------------------------
   0 O :   -0.194632    0.973883
   1 O :   -0.306978    0.050707
   2 C :   -0.006115   -0.004211
   3 C :    0.083354   -0.003911
   4 C :    0.031150    0.008057
   5 C :   -0.136020    0.003302
   6 C :    0.127854    0.000094
   7 H :    0.171311   -0.025427
   8 H :    0.042758   -0.001245
   9 H :    0.035646   -0.000512
  10 H :    0.024795   -0.000389
  11 H :    0.018919   -0.000088
  12 H :    0.056855   -0.000278
  13 H :    0.051103    0.000017
Sum of atomic charges         :    0.0000000
Sum of atomic spin populations:    1.0000000

-----------------------------------------------------
MULLIKEN REDUCED ORBITAL CHARGES AND SPIN POPULATIONS
-----------------------------------------------------
CHARGE
  0 O s       :     3.858288  s :     3.858288
      pz      :     1.578608  p :     4.329676
      px      :     1.321776
      py      :     1.429291
      dz2     :     0.001342  d :     0.006668
      dxz     :     0.001210
      dyz     :     0.002758
      dx2y2   :     0.000357
      dxy     :     0.001001
  1 O s       :     3.848373  s :     3.848373
      pz      :     1.403493  p :     4.436016
      px      :     1.683046
      py      :     1.349477
      dz2     :     0.005813  d :     0.022589
      dxz     :     0.002953
      dyz     :     0.006042
      dx2y2   :     0.004135
      dxy     :     0.003645
  2 C s       :     3.216975  s :     3.216975
      pz      :     0.791102  p :     2.711632
      px      :     0.977819
      py      :     0.942711
      dz2     :     0.021591  d :     0.077509
      dxz     :     0.018461
      dyz     :     0.019033
      dx2y2   :     0.008840
      dxy     :     0.009584
  3 C s       :     3.184955  s :     3.184955
      pz      :     0.958253  p :     2.656759
      px      :     0.934799
      py      :     0.763707
      dz2     :     0.008837  d :     0.074932
      dxz     :     0.010369
      dyz     :     0.015103
      dx2y2   :     0.021471
      dxy     :     0.019152
  4 C s       :     3.140645  s :     3.140645
      pz      :     0.980891  p :     2.792998
      px      :     0.856706
      py      :     0.955401
      dz2     :     0.005633  d :     0.035207
      dxz     :     0.008302
      dyz     :     0.004776
      dx2y2   :     0.008693
      dxy     :     0.007804
  5 C s       :     3.209009  s :     3.209009
      pz      :     0.972194  p :     2.888072
      px      :     0.951099
      py      :     0.964779
      dz2     :     0.007585  d :     0.038938
      dxz     :     0.008087
      dyz     :     0.005746
      dx2y2   :     0.008233
      dxy     :     0.009287
  6 C s       :     2.906381  s :     2.906381
      pz      :     0.981614  p :     2.929513
      px      :     0.942877
      py      :     1.005022
      dz2     :     0.007665  d :     0.036252
      dxz     :     0.008542
      dyz     :     0.006148
      dx2y2   :     0.007579
      dxy     :     0.006318
  7 H s       :     0.760215  s :     0.760215
      pz      :     0.030192  p :     0.068474
      px      :     0.016145
      py      :     0.022137
  8 H s       :     0.933867  s :     0.933867
      pz      :     0.002561  p :     0.023375
      px      :     0.015811
      py      :     0.005002
  9 H s       :     0.940939  s :     0.940939
      pz      :     0.007909  p :     0.023416
      px      :     0.004599
      py      :     0.010908
 10 H s       :     0.950007  s :     0.950007
      pz      :     0.008463  p :     0.025198
      px      :     0.011485
      py      :     0.005250
 11 H s       :     0.956998  s :     0.956998
      pz      :     0.005167  p :     0.024083
      px      :     0.010925
      py      :     0.007991
 12 H s       :     0.919367  s :     0.919367
      pz      :     0.012721  p :     0.023778
      px      :     0.004492
      py      :     0.006564
 13 H s       :     0.925183  s :     0.925183
      pz      :     0.004466  p :     0.023714
      px      :     0.005442
      py      :     0.013806

SPIN
  0 O s       :     0.015360  s :     0.015360
      pz      :     0.024171  p :     0.958054
      px      :     0.579052
      py      :     0.354831
      dz2     :    -0.000036  d :     0.000470
      dxz     :     0.000249
      dyz     :     0.000106
      dx2y2   :     0.000177
      dxy     :    -0.000026
  1 O s       :     0.002260  s :     0.002260
      pz      :     0.008824  p :     0.048429
      px      :     0.035048
      py      :     0.004558
      dz2     :    -0.000019  d :     0.000017
      dxz     :     0.000053
      dyz     :     0.000002
      dx2y2   :     0.000012
      dxy     :    -0.000031
  2 C s       :     0.000261  s :     0.000261
      pz      :    -0.003925  p :    -0.004660
      px      :    -0.000070
      py      :    -0.000666
      dz2     :     0.000090  d :     0.000189
      dxz     :     0.000028
      dyz     :    -0.000016
      dx2y2   :     0.000011
      dxy     :     0.000075
  3 C s       :     0.000058  s :     0.000058
      pz      :    -0.000759  p :    -0.004103
      px      :    -0.001138
      py      :    -0.002205
      dz2     :     0.000015  d :     0.000133
      dxz     :    -0.000008
      dyz     :    -0.000000
      dx2y2   :     0.000121
      dxy     :     0.000005
  4 C s       :     0.000596  s :     0.000596
      pz      :     0.003232  p :     0.007468
      px      :     0.001790
      py      :     0.002445
      dz2     :     0.000002  d :    -0.000008
      dxz     :     0.000001
      dyz     :    -0.000017
      dx2y2   :     0.000017
      dxy     :    -0.000010
  5 C s       :     0.000655  s :     0.000655
      pz      :     0.001091  p :     0.002614
      px      :     0.000095
      py      :     0.001428
      dz2     :     0.000027  d :     0.000033
      dxz     :     0.000006
      dyz     :     0.000003
      dx2y2   :    -0.000005
      dxy     :     0.000002
  6 C s       :    -0.000110  s :    -0.000110
      pz      :     0.000502  p :     0.000220
      px      :    -0.000276
      py      :    -0.000006
      dz2     :    -0.000031  d :    -0.000015
      dxz     :     0.000013
      dyz     :    -0.000005
      dx2y2   :    -0.000002
      dxy     :     0.000010
  7 H s       :    -0.033574  s :    -0.033574
      pz      :    -0.000145  p :     0.008146
      px      :     0.005271
      py      :     0.003020
  8 H s       :    -0.001225  s :    -0.001225
      pz      :    -0.000021  p :    -0.000020
      px      :     0.000005
      py      :    -0.000003
  9 H s       :    -0.000505  s :    -0.000505
      pz      :    -0.000008  p :    -0.000007
      px      :     0.000003
      py      :    -0.000002
 10 H s       :    -0.000430  s :    -0.000430
      pz      :     0.000035  p :     0.000042
      px      :    -0.000002
      py      :     0.000009
 11 H s       :    -0.000120  s :    -0.000120
      pz      :     0.000010  p :     0.000032
      px      :     0.000002
      py      :     0.000019
 12 H s       :    -0.000278  s :    -0.000278
      pz      :     0.000001  p :     0.000000
      px      :    -0.000001
      py      :     0.000000
 13 H s       :     0.000020  s :     0.000020
      pz      :    -0.000001  p :    -0.000003
      px      :    -0.000001
      py      :    -0.000000


                     *******************************
                     * LOEWDIN POPULATION ANALYSIS *
                     *******************************

-------------------------------------------
LOEWDIN ATOMIC CHARGES AND SPIN POPULATIONS
-------------------------------------------
   0 O :   -0.079404    0.938289
   1 O :   -0.131632    0.051708
   2 C :    0.047206   -0.001745
   3 C :    0.045356   -0.002267
   4 C :   -0.050349    0.006399
   5 C :   -0.007807    0.003094
   6 C :   -0.044841    0.000020
   7 H :    0.054877    0.005474
   8 H :    0.016965   -0.000551
   9 H :    0.020882   -0.000224
  10 H :    0.027510    0.000058
  11 H :    0.019663    0.000007
  12 H :    0.040717   -0.000221
  13 H :    0.040858   -0.000041

----------------------------------------------------
LOEWDIN REDUCED ORBITAL CHARGES AND SPIN POPULATIONS
----------------------------------------------------
CHARGE
  0 O s       :     3.673523  s :     3.673523
      pz      :     1.630880  p :     4.393990
      px      :     1.313921
      py      :     1.449189
      dz2     :     0.001798  d :     0.011890
      dxz     :     0.002217
      dyz     :     0.005892
      dx2y2   :     0.000426
      dxy     :     0.001557
  1 O s       :     3.531321  s :     3.531321
      pz      :     1.460889  p :     4.562285
      px      :     1.678020
      py      :     1.423376
      dz2     :     0.009448  d :     0.038026
      dxz     :     0.004459
      dyz     :     0.011403
      dx2y2   :     0.006785
      dxy     :     0.005932
  2 C s       :     2.845312  s :     2.845312
      pz      :     0.881360  p :     2.936441
      px      :     1.052596
      py      :     1.002485
      dz2     :     0.043557  d :     0.171041
      dxz     :     0.043818
      dyz     :     0.042658
      dx2y2   :     0.018800
      dxy     :     0.022208
  3 C s       :     2.848985  s :     2.848985
      pz      :     1.024279  p :     2.939397
      px      :     1.010188
      py      :     0.904930
      dz2     :     0.019533  d :     0.166262
      dxz     :     0.023802
      dyz     :     0.032747
      dx2y2   :     0.051625
      dxy     :     0.038556
  4 C s       :     2.870700  s :     2.870700
      pz      :     1.033078  p :     3.087376
      px      :     1.025099
      py      :     1.029199
      dz2     :     0.012290  d :     0.092273
      dxz     :     0.021771
      dyz     :     0.013611
      dx2y2   :     0.024342
      dxy     :     0.020260
  5 C s       :     2.875413  s :     2.875413
      pz      :     1.000496  p :     3.036389
      px      :     1.003235
      py      :     1.032657
      dz2     :     0.016050  d :     0.096005
      dxz     :     0.021056
      dyz     :     0.014992
      dx2y2   :     0.020816
      dxy     :     0.023091
  6 C s       :     2.832733  s :     2.832733
      pz      :     1.036832  p :     3.117904
      px      :     1.027174
      py      :     1.053898
      dz2     :     0.019674  d :     0.094205
      dxz     :     0.023461
      dyz     :     0.015363
      dx2y2   :     0.019996
      dxy     :     0.015711
  7 H s       :     0.758883  s :     0.758883
      pz      :     0.082490  p :     0.186240
      px      :     0.043732
      py      :     0.060018
  8 H s       :     0.908235  s :     0.908235
      pz      :     0.011153  p :     0.074800
      px      :     0.046555
      py      :     0.017092
  9 H s       :     0.905523  s :     0.905523
      pz      :     0.024528  p :     0.073595
      px      :     0.016612
      py      :     0.032455
 10 H s       :     0.897914  s :     0.897914
      pz      :     0.024596  p :     0.074576
      px      :     0.034267
      py      :     0.015712
 11 H s       :     0.908471  s :     0.908471
      pz      :     0.016653  p :     0.071867
      px      :     0.032729
      py      :     0.022484
 12 H s       :     0.890602  s :     0.890602
      pz      :     0.036338  p :     0.068682
      px      :     0.014021
      py      :     0.018323
 13 H s       :     0.889902  s :     0.889902
      pz      :     0.013296  p :     0.069240
      px      :     0.016872
      py      :     0.039073

SPIN
  0 O s       :     0.009758  s :     0.009758
      pz      :     0.017954  p :     0.928393
      px      :     0.565332
      py      :     0.345107
      dz2     :     0.000051  d :     0.000139
      dxz     :    -0.000024
      dyz     :    -0.000124
      dx2y2   :     0.000080
      dxy     :     0.000156
  1 O s       :     0.001425  s :     0.001425
      pz      :     0.009101  p :     0.050290
      px      :     0.036915
      py      :     0.004274
      dz2     :    -0.000030  d :    -0.000008
      dxz     :     0.000039
      dyz     :     0.000005
      dx2y2   :     0.000008
      dxy     :    -0.000028
  2 C s       :    -0.000178  s :    -0.000178
      pz      :    -0.001468  p :    -0.002008
      px      :     0.000013
      py      :    -0.000553
      dz2     :     0.000270  d :     0.000441
      dxz     :     0.000051
      dyz     :    -0.000028
      dx2y2   :     0.000033
      dxy     :     0.000115
  3 C s       :    -0.000219  s :    -0.000219
      pz      :    -0.000713  p :    -0.002365
      px      :    -0.000291
      py      :    -0.001361
      dz2     :     0.000019  d :     0.000317
      dxz     :    -0.000007
      dyz     :     0.000016
      dx2y2   :     0.000244
      dxy     :     0.000045
  4 C s       :     0.000196  s :     0.000196
      pz      :     0.003366  p :     0.006182
      px      :     0.001040
      py      :     0.001776
      dz2     :    -0.000002  d :     0.000021
      dxz     :    -0.000004
      dyz     :    -0.000020
      dx2y2   :     0.000046
      dxy     :     0.000002
  5 C s       :     0.000393  s :     0.000393
      pz      :     0.001194  p :     0.002596
      px      :     0.000659
      py      :     0.000743
      dz2     :     0.000055  d :     0.000106
      dxz     :     0.000052
      dyz     :     0.000020
      dx2y2   :    -0.000005
      dxy     :    -0.000016
  6 C s       :     0.000024  s :     0.000024
      pz      :     0.000214  p :     0.000028
      px      :    -0.000162
      py      :    -0.000025
      dz2     :    -0.000065  d :    -0.000032
      dxz     :     0.000024
      dyz     :    -0.000010
      dx2y2   :    -0.000008
      dxy     :     0.000026
  7 H s       :    -0.022120  s :    -0.022120
      pz      :     0.001922  p :     0.027594
      px      :     0.015843
      py      :     0.009828
  8 H s       :    -0.000378  s :    -0.000378
      pz      :    -0.000102  p :    -0.000173
      px      :    -0.000044
      py      :    -0.000027
  9 H s       :    -0.000134  s :    -0.000134
      pz      :    -0.000025  p :    -0.000090
      px      :    -0.000023
      py      :    -0.000042
 10 H s       :    -0.000147  s :    -0.000147
      pz      :     0.000114  p :     0.000205
      px      :     0.000034
      py      :     0.000057
 11 H s       :    -0.000085  s :    -0.000085
      pz      :     0.000044  p :     0.000092
      px      :     0.000027
      py      :     0.000021
 12 H s       :    -0.000218  s :    -0.000218
      pz      :    -0.000002  p :    -0.000004
      px      :    -0.000006
      py      :     0.000005
 13 H s       :    -0.000035  s :    -0.000035
      pz      :     0.000007  p :    -0.000006
      px      :    -0.000007
      py      :    -0.000005


                      *****************************
                      * MAYER POPULATION ANALYSIS *
                      *****************************

  NA   - Mulliken gross atomic population
  ZA   - Total nuclear charge
  QA   - Mulliken gross atomic charge
  VA   - Mayer's total valence
  BVA  - Mayer's bonded valence
  FA   - Mayer's free valence

  ATOM       NA         ZA         QA         VA         BVA        FA
  0 O      8.1946     8.0000    -0.1946     2.0452     1.1629     0.8822
  1 O      8.3070     8.0000    -0.3070     2.0295     2.0268     0.0027
  2 C      6.0061     6.0000    -0.0061     4.0123     4.0122     0.0000
  3 C      5.9166     6.0000     0.0834     3.9069     3.9069     0.0000
  4 C      5.9689     6.0000     0.0311     3.7843     3.7843     0.0000
  5 C      6.1360     6.0000    -0.1360     4.0067     4.0067     0.0000
  6 C      5.8721     6.0000     0.1279     3.7902     3.7902     0.0000
  7 H      0.8287     1.0000     0.1713     1.0060     1.0047     0.0013
  8 H      0.9572     1.0000     0.0428     1.0162     1.0162     0.0000
  9 H      0.9644     1.0000     0.0356     1.0090     1.0090     0.0000
 10 H      0.9752     1.0000     0.0248     0.9911     0.9911     0.0000
 11 H      0.9811     1.0000     0.0189     0.9889     0.9889     0.0000
 12 H      0.9431     1.0000     0.0569     0.9833     0.9833     0.0000
 13 H      0.9489     1.0000     0.0511     0.9838     0.9838     0.0000

  Mayer bond orders larger than 0.100000
B(  0-O ,  7-H ) :   0.9937 B(  1-O ,  2-C ) :   0.9627 B(  1-O ,  3-C ) :   0.9148 
B(  2-C ,  3-C ) :   1.0156 B(  2-C ,  6-C ) :   0.9886 B(  2-C ,  8-H ) :   0.9714 
B(  3-C ,  4-C ) :   0.9726 B(  3-C ,  9-H ) :   0.9849 B(  4-C ,  5-C ) :   1.8383 
B(  4-C , 10-H ) :   0.9976 B(  5-C ,  6-C ) :   1.0232 B(  5-C , 11-H ) :   0.9686 
B(  6-C , 12-H ) :   0.9251 B(  6-C , 13-H ) :   0.9227 


------------------
HIRSHFELD ANALYSIS
------------------

Total integrated alpha density =     26.999994217
Total integrated beta density  =     25.999996661

  ATOM     CHARGE      SPIN    
   0 O   -0.178544    0.900977
   1 O   -0.176131    0.053357
   2 C    0.045310    0.000877
   3 C    0.038789    0.000615
   4 C   -0.054388    0.005717
   5 C   -0.026889    0.003668
   6 C   -0.043480    0.000282
   7 H    0.163247    0.033263
   8 H    0.038987    0.000452
   9 H    0.045892    0.000345
  10 H    0.043001    0.000423
  11 H    0.028743    0.000195
  12 H    0.037808   -0.000151
  13 H    0.037664   -0.000022

  TOTAL   0.000009    0.999998

-------
TIMINGS
-------

Total SCF time: 0 days 0 hours 0 min 10 sec 

Total time                  ....      10.468 sec
Sum of individual times     ....      10.320 sec  ( 98.6%)

Fock matrix formation       ....       9.353 sec  ( 89.3%)
  Split-RI-J                ....       0.877 sec  (  9.4% of F)
  Chain of spheres X        ....       5.962 sec  ( 63.7% of F)
  XC integration            ....       2.405 sec  ( 25.7% of F)
    Basis function eval.    ....       0.651 sec  ( 27.1% of XC)
    Density eval.           ....       0.609 sec  ( 25.3% of XC)
    XC-Functional eval.     ....       0.231 sec  (  9.6% of XC)
    XC-Potential eval.      ....       0.707 sec  ( 29.4% of XC)
Diagonalization             ....       0.191 sec  (  1.8%)
Density matrix formation    ....       0.010 sec  (  0.1%)
Population analysis         ....       0.131 sec  (  1.3%)
Initial guess               ....       0.036 sec  (  0.3%)
Orbital Transformation      ....       0.000 sec  (  0.0%)
Orbital Orthonormalization  ....       0.000 sec  (  0.0%)
DIIS solution               ....       0.133 sec  (  1.3%)
Grid generation             ....       0.465 sec  (  4.4%)

Maximum memory used throughout the entire SCF-calculation: 50.7 MB


-------------------------------------------------------------------------------
                          DFT DISPERSION CORRECTION                            
                                                                               
                              DFTD3 V3.1  Rev 1                                
                          USING Becke-Johnson damping                          
-------------------------------------------------------------------------------
The PBE0 functional is recognized
Active option DFTDOPT                   ...         4   

molecular C6(AA) [au] = 1727.525678 


            DFT-D V3
 parameters
 s6 scaling factor         :     1.0000 
 a1 scaling factor         :     0.4145 
 s8 scaling factor         :     1.2177 
 a2 scaling factor         :     4.8593 
 ad hoc parameters k1-k3   :    16.0000     1.3333    -4.0000 

 Edisp/kcal,au: -5.976306633484  -0.009523849827 
 E6   /kcal   :  -3.800726769 
 E8   /kcal   :  -2.175579864 
 % E8         :  36.403417656 

-------------------------   ----------------
Dispersion correction           -0.009523850
-------------------------   ----------------


-------------------------   --------------------
FINAL SINGLE POINT ENERGY      -344.357289749181
-------------------------   --------------------


                            ***************************************
                            *     ORCA property calculations      *
                            ***************************************

                                    ---------------------
                                    Active property flags
                                    ---------------------
   (+) Dipole Moment


------------------------------------------------------------------------------
                       ORCA ELECTRIC PROPERTIES CALCULATION
------------------------------------------------------------------------------

Dipole Moment Calculation                       ... on
Quadrupole Moment Calculation                   ... off
Polarizability Calculation                      ... off
GBWName                                         ... hy-zjC_ll_ad_1-5_0-1_hess_orca.gbw
Electron density                                ... hy-zjC_ll_ad_1-5_0-1_hess_orca.scfp
The origin for moment calculation is the CENTER OF MASS  = (-0.253465,  0.074173  0.390040)

-------------
DIPOLE MOMENT
-------------
                                X             Y             Z
Electronic contribution:     -1.11551       0.51221       2.16367
Nuclear contribution   :      0.98811      -0.51559      -2.20498
                        -----------------------------------------
Total Dipole Moment    :     -0.12740      -0.00338      -0.04131
                        -----------------------------------------
Magnitude (a.u.)       :      0.13397
Magnitude (Debye)      :      0.34052



--------------------
Rotational spectrum 
--------------------
 
Rotational constants in cm-1:     0.206466     0.062700     0.053864 
Rotational constants in MHz :  6189.690615  1879.699622  1614.812735 

 Dipole components along the rotational axes: 
x,y,z [a.u.] :    -0.082819     0.100579    -0.031187 
x,y,z [Debye]:    -0.210509     0.255651    -0.079270 

 


           ************************************************************
           *        Program running with 8 parallel MPI-processes     *
           *              working on a common directory               *
           ************************************************************

-------------------------------------------------------------------------------
                               ORCA SCF HESSIAN
-------------------------------------------------------------------------------

                   --------- SHARK INITIALIZATION DONE ---------

Hessian of the Kohn-Sham DFT energy:
Kohn-Sham wavefunction type                      ... UKS
Hartree-Fock exchange scaling                    ...    0.250
Number of operators                              ...    2
Number of atoms                                  ...   14
Basis set dimensions                             ...  133
Integral neglect threshold                       ... 1.0e-10
Integral primitive cutoff                        ... 1.0e-11

Setting up DFT Hessian calculations              ... 

HESS GRID
---------

General Integration Accuracy     IntAcc      ... 4.629
Radial Grid Type                 RadialGrid  ... OptM3 with GC (2021)
Angular Grid (max. ang.)         AngularGrid ... 5 (Lebedev-434)
Angular grid pruning method      GridPruning ... 4 (adaptive)
Weight generation scheme         WeightScheme... Becke
Basis function cutoff            BFCut       ... 1.0000e-10
Integration weight cutoff        WCut        ... 1.0000e-14
Angular grids for H and He will be reduced by one unit
Partially contracted basis set               ... off
Rotationally invariant grid construction     ... off

Total number of grid points                  ...   100842
Total number of batches                      ...     1582
Average number of points per batch           ...       63
Average number of grid points per atom       ...     7203

Building densities                               ... done   (      0.0 sec)
Calculating rho(r) on the grid                   ... done   (      0.1 sec)
Building xc-kernel on the grid                   ... done   (      0.0 sec)
                                                     done   (      0.7 sec)

Nuclear repulsion Hessian  (SHARK)               ... done   (      0.0 sec)

----------------------------------------------
Forming right-hand sides of CP-SCF equations     ...
----------------------------------------------
One electron integral derivatives  (SHARK)       ... done   (      0.0 sec)
Transforming the overlap derivative matrices     ... done   (      0.0 sec)
Making the Q(x) pseudodensities                  ... done   (      0.0 sec)
Adding the E*S(x)*S(y) terms to the Hessian      ... done   (      0.0 sec)
Calculating energy weighted overlap derivatives  ... done   (      0.0 sec)
Two electron integral derivatives (SHARK-RI)     ... done   (      1.8 sec)
Exchange-correlation integral derivatives        ... done   (     10.3 sec)
tr(F(y)Q(x)) contribution to the Hessian         ... done   (      0.0 sec)
Response fock operator R(S(x)) (SHARK-RIJCOSX)   ... done   (      2.1 sec)
XC Response fock operator R(S(x))                ... done   (      3.0 sec)
tr(F(y)S(x)) contribution to the Hessian         ... done   (      0.0 sec)
Transforming and finalizing RHSs                 ... done   (      0.0 sec)

----------------------------------------------
Solving the CP-SCF equations (RIJCOSX)           ...
----------------------------------------------
     CP-SCF ITERATION   0:   2.7107e-01 (   1.3 sec   0/ 42 done)
     CP-SCF ITERATION   1:   5.2154e-02 (   1.2 sec   0/ 42 done)
     CP-SCF ITERATION   2:   2.7788e-02 (   1.2 sec   0/ 42 done)
     CP-SCF ITERATION   3:   1.2936e-02 (   1.2 sec   4/ 42 done)
     CP-SCF ITERATION   4:   8.0690e-03 (   1.1 sec  13/ 42 done)
     CP-SCF ITERATION   5:   1.2233e-02 (   0.9 sec  19/ 42 done)
     CP-SCF ITERATION   6:   1.2021e-02 (   0.8 sec  23/ 42 done)
     CP-SCF ITERATION   7:   1.0768e-02 (   0.7 sec  23/ 42 done)
     CP-SCF ITERATION   8:   3.5208e-03 (   0.7 sec  27/ 42 done)
     CP-SCF ITERATION   9:   2.3125e-03 (   0.6 sec  37/ 42 done)
     CP-SCF ITERATION  10:   9.5120e-04 (   0.3 sec  42/ 42 done)
                    *** THE CP-SCF HAS CONVERGED ***

                                                 ... done   (     10.0 sec)
Forming perturbed density Hessian contributions  ... done   (      0.0 sec)
2nd integral derivative contribs (SHARK-RI)      ... done   (      6.7 sec)
Exchange-correlation Hessian                     ... done   (      6.8 sec)
Dispersion correction in the Hessian             ... done   (      0.4 sec)
Dipole derivatives                               ... (center of mass: -0.253465,  0.074173  0.390040)done   (      0.1 sec)

Total SCF Hessian time: 0 days 0 hours 0 min 42 sec 

Writing the Hessian file to the disk             ... done


Maximum memory used throughout the entire SCFHESS-calculation: 112.6 MB

-----------------------
VIBRATIONAL FREQUENCIES
-----------------------

Scaling factor for frequencies =  1.000000000  (already applied!)

   0:         0.00 cm**-1
   1:         0.00 cm**-1
   2:         0.00 cm**-1
   3:         0.00 cm**-1
   4:         0.00 cm**-1
   5:         0.00 cm**-1
   6:      -525.07 cm**-1 ***imaginary mode***
   7:      -482.59 cm**-1 ***imaginary mode***
   8:      -113.07 cm**-1 ***imaginary mode***
   9:       -88.79 cm**-1 ***imaginary mode***
  10:        91.76 cm**-1
  11:       308.80 cm**-1
  12:       409.02 cm**-1
  13:       477.57 cm**-1
  14:       670.14 cm**-1
  15:       721.21 cm**-1
  16:       803.27 cm**-1
  17:       841.80 cm**-1
  18:       882.99 cm**-1
  19:       934.97 cm**-1
  20:       941.20 cm**-1
  21:       982.45 cm**-1
  22:       991.13 cm**-1
  23:      1034.34 cm**-1
  24:      1050.94 cm**-1
  25:      1080.23 cm**-1
  26:      1097.97 cm**-1
  27:      1159.32 cm**-1
  28:      1201.56 cm**-1
  29:      1237.86 cm**-1
  30:      1314.48 cm**-1
  31:      1378.80 cm**-1
  32:      1421.13 cm**-1
  33:      1449.13 cm**-1
  34:      1704.13 cm**-1
  35:      3175.93 cm**-1
  36:      3246.60 cm**-1
  37:      3305.30 cm**-1
  38:      3346.96 cm**-1
  39:      3372.12 cm**-1
  40:      3426.74 cm**-1
  41:      4013.02 cm**-1


------------
NORMAL MODES
------------

These modes are the Cartesian displacements weighted by the diagonal matrix
M(i,i)=1/sqrt(m[i]) where m[i] is the mass of the displaced atom
Thus, these vectors are normalized but *not* orthogonal

                  0          1          2          3          4          5    
      0       0.000000   0.000000   0.000000   0.000000   0.000000   0.000000
      1       0.000000   0.000000   0.000000   0.000000   0.000000   0.000000
      2       0.000000   0.000000   0.000000   0.000000   0.000000   0.000000
      3       0.000000   0.000000   0.000000   0.000000   0.000000   0.000000
      4       0.000000   0.000000   0.000000   0.000000   0.000000   0.000000
      5       0.000000   0.000000   0.000000   0.000000   0.000000   0.000000
      6       0.000000   0.000000   0.000000   0.000000   0.000000   0.000000
      7       0.000000   0.000000   0.000000   0.000000   0.000000   0.000000
      8       0.000000   0.000000   0.000000   0.000000   0.000000   0.000000
      9       0.000000   0.000000   0.000000   0.000000   0.000000   0.000000
     10       0.000000   0.000000   0.000000   0.000000   0.000000   0.000000
     11       0.000000   0.000000   0.000000   0.000000   0.000000   0.000000
     12       0.000000   0.000000   0.000000   0.000000   0.000000   0.000000
     13       0.000000   0.000000   0.000000   0.000000   0.000000   0.000000
     14       0.000000   0.000000   0.000000   0.000000   0.000000   0.000000
     15       0.000000   0.000000   0.000000   0.000000   0.000000   0.000000
     16       0.000000   0.000000   0.000000   0.000000   0.000000   0.000000
     17       0.000000   0.000000   0.000000   0.000000   0.000000   0.000000
     18       0.000000   0.000000   0.000000   0.000000   0.000000   0.000000
     19       0.000000   0.000000   0.000000   0.000000   0.000000   0.000000
     20       0.000000   0.000000   0.000000   0.000000   0.000000   0.000000
     21       0.000000   0.000000   0.000000   0.000000   0.000000   0.000000
     22       0.000000   0.000000   0.000000   0.000000   0.000000   0.000000
     23       0.000000   0.000000   0.000000   0.000000   0.000000   0.000000
     24       0.000000   0.000000   0.000000   0.000000   0.000000   0.000000
     25       0.000000   0.000000   0.000000   0.000000   0.000000   0.000000
     26       0.000000   0.000000   0.000000   0.000000   0.000000   0.000000
     27       0.000000   0.000000   0.000000   0.000000   0.000000   0.000000
     28       0.000000   0.000000   0.000000   0.000000   0.000000   0.000000
     29       0.000000   0.000000   0.000000   0.000000   0.000000   0.000000
     30       0.000000   0.000000   0.000000   0.000000   0.000000   0.000000
     31       0.000000   0.000000   0.000000   0.000000   0.000000   0.000000
     32       0.000000   0.000000   0.000000   0.000000   0.000000   0.000000
     33       0.000000   0.000000   0.000000   0.000000   0.000000   0.000000
     34       0.000000   0.000000   0.000000   0.000000   0.000000   0.000000
     35       0.000000   0.000000   0.000000   0.000000   0.000000   0.000000
[...]
      2       0.000513   0.001855  -0.001292  -0.001338   0.000789   0.000952
      3      -0.060358  -0.009572  -0.043773   0.020681  -0.039248  -0.008095
      4      -0.076655  -0.018810  -0.001837   0.064524   0.065901  -0.001794
      5       0.014333   0.122666  -0.039531  -0.047058  -0.030970  -0.004672
      6       0.019361   0.016190   0.043018  -0.025228   0.106148   0.039027
      7       0.088907   0.032349  -0.014237  -0.165421   0.004055  -0.046172
      8       0.020134  -0.031535   0.065823   0.039071  -0.002239  -0.076021
      9       0.038165  -0.073211  -0.013955   0.043024   0.066193  -0.102125
     10       0.027771   0.035457   0.088153  -0.033072  -0.081818  -0.003681
     11      -0.029491  -0.133025   0.054307   0.025948  -0.077566  -0.009651
     12       0.006803   0.092804   0.071784  -0.046770  -0.058055  -0.008978
     13       0.000491   0.000882   0.018447   0.000778  -0.022624   0.046188
     14       0.028759   0.031721   0.000941   0.012804  -0.015890   0.022634
     15       0.007110   0.002210   0.024400   0.000592  -0.047466   0.043537
     16       0.081975   0.027592  -0.048463   0.037756   0.018005   0.018485
     17      -0.051636  -0.013578  -0.041380  -0.041890  -0.006338   0.037535
     18      -0.017046  -0.010416  -0.015830   0.005917   0.019039   0.042187
     19      -0.069884  -0.024605  -0.032206   0.052585   0.022339  -0.017753
     20       0.003554  -0.031082  -0.027963   0.026623   0.044171   0.012708
     21      -0.007031  -0.009573   0.005038   0.005605   0.007254   0.006087
     22       0.004006   0.004520  -0.004811  -0.004356  -0.004378   0.003680
     23       0.001220   0.001569  -0.002457  -0.002884   0.000778   0.004931
     24      -0.171242   0.058093   0.007320   0.111417  -0.037678   0.010493
     25      -0.546030   0.033901  -0.037119   0.286906  -0.167328   0.197264
     26       0.209388  -0.267794   0.253135  -0.100053   0.718289   0.517037
     27       0.304545  -0.192116  -0.333165  -0.031521  -0.352206   0.426714
     28       0.242446  -0.531704   0.005751  -0.016219  -0.426015   0.146726
     29      -0.182797   0.609870  -0.008885  -0.049473   0.130979   0.103406
     30       0.046687   0.140111  -0.263449  -0.045541  -0.067951   0.196328
     31       0.000153  -0.008051   0.387050  -0.022776   0.015068  -0.230034
     32      -0.034732  -0.027762   0.323940   0.017598  -0.042429  -0.129218
     33       0.019798  -0.068682  -0.304818  -0.022170   0.076422  -0.269066
     34      -0.029003  -0.044812  -0.329577  -0.041657   0.125269  -0.242124
     35       0.235260  -0.077327  -0.440098   0.078924   0.160641  -0.331363
     36       0.436238   0.197937   0.222116   0.542623  -0.027995  -0.179971
     37      -0.041468  -0.070270  -0.075992  -0.238118   0.101048   0.091672
     38       0.075119  -0.027276  -0.016366  -0.027200   0.080584   0.034524
     39      -0.324846  -0.296100   0.076610  -0.630721   0.031675  -0.230582
     40       0.067563   0.082089  -0.060528   0.265052   0.016971   0.079340
     41      -0.197349  -0.072652  -0.077700   0.105835   0.119677   0.012187
                 30         31         32         33         34         35    
      0       0.000531  -0.000316   0.000227   0.001651   0.000615  -0.000001
      1       0.000018  -0.000144   0.000125   0.002211   0.001468  -0.000004
      2       0.000663  -0.000133  -0.000333  -0.003387   0.001270  -0.000002
      3       0.011310  -0.001915   0.004911   0.022821  -0.001471  -0.000087
      4      -0.000056   0.003529   0.008350   0.142373   0.004811   0.000035
      5      -0.010198   0.007573  -0.003889  -0.158028   0.001085  -0.000365
      6      -0.119690  -0.018965  -0.024571   0.147929  -0.006302  -0.000987
      7       0.071573   0.046250   0.025695   0.095980   0.006931  -0.000763
      8       0.076915   0.044692   0.044266   0.406048  -0.000367  -0.001412
      9       0.058158   0.155888   0.016700  -0.285134  -0.007023  -0.000233
     10      -0.021259  -0.029058  -0.021122  -0.247220  -0.042532   0.000029
     11      -0.005080  -0.034885  -0.009339  -0.113634  -0.047162  -0.000151
     12       0.019334  -0.186548  -0.032017   0.061803  -0.008349   0.000248
     13       0.000469   0.086052   0.015859   0.004005   0.386677   0.000004
     14       0.014250   0.056992   0.011764   0.009287   0.299854  -0.000246
     15      -0.132885   0.121204   0.032003  -0.021262  -0.109145   0.001247
     16       0.023446  -0.000024   0.003722   0.028957  -0.383370  -0.001849
     17      -0.031022   0.058446   0.014043   0.041590  -0.349196  -0.001529
     18       0.302201  -0.032865  -0.003166  -0.012215   0.027171   0.006192
     19      -0.108298   0.001759  -0.056630  -0.022904   0.028749   0.015778
     20      -0.007187  -0.017965  -0.104991  -0.051159   0.053577   0.068177
     21       0.000365  -0.004480  -0.000193   0.016779   0.001934   0.000123
     22      -0.003117  -0.001764  -0.001763  -0.013611   0.002081  -0.000169
     23      -0.001829  -0.002944  -0.001656  -0.005573   0.001065   0.000188
     24      -0.122878  -0.040431  -0.021465   0.220962  -0.013550   0.029510
     25       0.031840  -0.183468  -0.036544  -0.189730   0.010211  -0.005971
     26      -0.075586  -0.209554  -0.118804  -0.332530   0.055814   0.007605
     27      -0.197645  -0.224694  -0.036707   0.416249   0.186515   0.000291
     28      -0.044726  -0.197133  -0.027455  -0.017727  -0.013424   0.000393
     29      -0.134454  -0.061585  -0.041262  -0.063019   0.009238   0.000718
     30      -0.082928   0.140589   0.034243   0.148081   0.406254  -0.002778
     31       0.141396  -0.319493  -0.067735  -0.089850  -0.047696  -0.001530
     32       0.089004  -0.240724  -0.045469  -0.059498   0.069916  -0.001085
     33      -0.191810  -0.267809  -0.069872  -0.063796   0.426019  -0.027133
     34      -0.007088  -0.333924  -0.089080   0.004635  -0.019338   0.021983
     35      -0.107486  -0.394184  -0.109103  -0.036737   0.171330   0.012268
     36      -0.576885  -0.089458   0.214798   0.027187   0.081128   0.109016
     37       0.091226  -0.265416   0.595906  -0.245711   0.031428   0.355471
     38      -0.049780  -0.164856   0.241799  -0.155991   0.065580  -0.734096
     39      -0.530837   0.060377  -0.070683   0.143466   0.160330  -0.184669
     40       0.197013  -0.003417  -0.120866  -0.060573  -0.020672  -0.527941
     41      -0.139012  -0.322556   0.668866  -0.265625   0.105570  -0.052360
                 36         37         38         39         40         41    
      0      -0.000002   0.000014  -0.000132  -0.000227   0.000002  -0.021041
      1       0.000008  -0.000063  -0.000071  -0.000131   0.000001  -0.035013
      2      -0.000004   0.000062   0.000354   0.000219   0.000035   0.047977
      3       0.000254   0.000327   0.000043   0.000665  -0.000369   0.000037
      4       0.000432   0.000023  -0.000889  -0.000812  -0.000047   0.000082
      5      -0.000606  -0.000267  -0.000268   0.000464   0.000202  -0.000166
      6       0.000618  -0.000817  -0.083367  -0.015892  -0.001613   0.000206
      7      -0.000916  -0.000088   0.020428   0.002459  -0.000184  -0.000152
      8       0.000428  -0.000483  -0.012244  -0.004965  -0.000455   0.000191
      9      -0.000192   0.000709   0.007115  -0.028589  -0.005855   0.000067
     10      -0.000119  -0.000543  -0.009406   0.067190   0.007504  -0.000270
     11       0.000653  -0.000594  -0.006947   0.047713   0.005833   0.000004
     12       0.000373   0.005498   0.000171  -0.004145   0.070555   0.000063
     13      -0.000098  -0.002376   0.000513  -0.004397   0.029743   0.000008
     14       0.000296   0.000890   0.000952  -0.005648   0.047432  -0.000108
     15      -0.001902  -0.066182   0.002227  -0.000508   0.005565   0.000039
     16       0.001522   0.052243  -0.001210   0.001220  -0.010555   0.000103
     17       0.001217   0.024128  -0.000406   0.000519  -0.006595   0.000034
     18      -0.028980   0.002670   0.001090  -0.000048  -0.000372  -0.000009
     19      -0.083496   0.003636  -0.002722  -0.001103  -0.000210   0.000038
     20       0.032964   0.002499  -0.003072  -0.000473  -0.000989  -0.000037
     21       0.000086   0.000035  -0.000202  -0.000068   0.000073   0.330920
     22      -0.000179  -0.000167   0.001526   0.001389   0.000301   0.556546
     23      -0.000101   0.000138  -0.001154  -0.001301  -0.000209  -0.759454
     24      -0.007627   0.018815   0.940771   0.160818   0.010849  -0.002013
     25       0.002995  -0.004209  -0.235663  -0.036372  -0.001996  -0.000040
     26      -0.002585   0.003572   0.146407   0.024691   0.001803  -0.000897
     27      -0.000157  -0.003972  -0.057951   0.322124   0.036471  -0.000170
     28       0.002504   0.008100   0.132989  -0.754804  -0.076419   0.001212
     29       0.001124   0.006132   0.088873  -0.528845  -0.055280   0.000884
     30      -0.004057  -0.079390  -0.001769   0.081117  -0.788487   0.000167
     31      -0.001790  -0.026779  -0.001810   0.031849  -0.286705   0.000081
     32      -0.001864  -0.050952  -0.002869   0.056029  -0.519180  -0.000021
     33       0.027056   0.770607  -0.013965   0.013743  -0.066669   0.000067
     34      -0.019307  -0.566867   0.011593  -0.009835   0.052089  -0.000026
     35      -0.010390  -0.254036   0.003932  -0.005315   0.023669  -0.000100
     36       0.067822  -0.000824  -0.004344  -0.000562  -0.001073   0.000109
     37       0.225823   0.004455  -0.006293   0.000199  -0.002102   0.000015
     38      -0.502232  -0.009243   0.018282   0.001272   0.005619  -0.000261
     39       0.271337  -0.018118   0.005907   0.001917   0.001058  -0.000076
     40       0.773247  -0.043894   0.022303   0.003646   0.002202  -0.000131
     41       0.102019  -0.007424   0.003952   0.000004   0.000921  -0.000014


-----------
IR SPECTRUM
-----------

 Mode   freq       eps      Int      T**2         TX        TY        TZ
       cm**-1   L/(mol*cm) km/mol    a.u.
----------------------------------------------------------------------------
 10:     91.76   0.000551    2.79  0.001875  (-0.033729  0.003337  0.026943)
 11:    308.80   0.000204    1.03  0.000206  ( 0.003249  0.007011  0.012106)
 12:    409.02   0.000491    2.48  0.000374  ( 0.007451 -0.017752 -0.001892)
 13:    477.57   0.006821   34.47  0.004457  ( 0.023459  0.049849 -0.037705)
 14:    670.14   0.001982   10.02  0.000923  (-0.004238  0.029633 -0.005184)
 15:    721.21   0.000158    0.80  0.000068  ( 0.004021  0.001363 -0.007082)
 16:    803.27   0.000547    2.77  0.000213  ( 0.006768 -0.010148 -0.007993)
 17:    841.80   0.009057   45.77  0.003358  ( 0.009222  0.046873 -0.032793)
 18:    882.99   0.000103    0.52  0.000037  ( 0.005168  0.001689  0.002637)
 19:    934.97   0.000639    3.23  0.000213  ( 0.009310  0.003927 -0.010551)
 20:    941.20   0.002716   13.73  0.000901  ( 0.002989 -0.009460 -0.028321)
 21:    982.45   0.000571    2.89  0.000181  (-0.010022 -0.008717 -0.002223)
 22:    991.13   0.002104   10.63  0.000662  (-0.019383 -0.016932  0.000093)
 23:   1034.34   0.001017    5.14  0.000307  (-0.008878  0.003036  0.014795)
 24:   1050.94   0.001134    5.73  0.000337  ( 0.015326 -0.002810 -0.009697)
 25:   1080.23   0.003439   17.38  0.000993  ( 0.015663 -0.005348 -0.026824)
 26:   1097.97   0.000640    3.23  0.000182  (-0.005327 -0.004743  0.011445)
 27:   1159.32   0.002693   13.61  0.000725  (-0.018988 -0.014124  0.012845)
 28:   1201.56   0.002628   13.28  0.000682  ( 0.013163 -0.018831  0.012434)
 29:   1237.86   0.000020    0.10  0.000005  ( 0.001464 -0.000891 -0.001481)
 30:   1314.48   0.001654    8.36  0.000393  (-0.017931  0.008426  0.000458)
 31:   1378.80   0.001921    9.71  0.000435  ( 0.003711 -0.016262 -0.012509)
 32:   1421.13   0.001424    7.20  0.000313  (-0.001831  0.005472  0.016714)
 33:   1449.13   0.005318   26.88  0.001145  (-0.017852 -0.007776  0.027678)
 34:   1704.13   0.001280    6.47  0.000234  ( 0.003279 -0.011242 -0.009864)
 35:   3175.93   0.002928   14.80  0.000288  ( 0.001686  0.005842  0.015836)
 36:   3246.60   0.001454    7.35  0.000140  (-0.005142 -0.010312  0.002647)
 37:   3305.30   0.002729   13.79  0.000258  (-0.013158  0.009008  0.001836)
 38:   3346.96   0.000962    4.86  0.000090  (-0.002087  0.000701 -0.009212)
 39:   3372.12   0.000858    4.34  0.000079  ( 0.002890  0.008185 -0.002014)
 40:   3426.74   0.000474    2.40  0.000043  ( 0.006383  0.000404 -0.001517)
 41:   4013.02   0.010804   54.60  0.000840  ( 0.018980  0.006278 -0.020988)

* The epsilon (eps) is given for a Dirac delta lineshape.
** The dipole moment derivative (T) already includes vibrational overlap.

The first frequency considered to be a vibration is 10
The total number of vibrations considered is 32


--------------------------
THERMOCHEMISTRY AT 298.15K
--------------------------

Temperature         ... 298.15 K
Pressure            ... 1.00 atm
Total Mass          ... 99.11 AMU

Throughout the following assumptions are being made:
  (1) The electronic state is orbitally nondegenerate
      but the spin degeneracy is treated
  (2) There are no thermally accessible electronically excited states
  (3) Hindered rotations indicated by low frequency modes are not
      treated as such but are treated as vibrations and this may
      cause some error
  (4) All equations used are the standard statistical mechanics
      equations for an ideal gas
  (5) All vibrations are strictly harmonic

freq.      91.76  E(vib)   ...       0.47 
freq.     308.80  E(vib)   ...       0.26 
freq.     409.02  E(vib)   ...       0.19 
freq.     477.57  E(vib)   ...       0.15 
freq.     670.14  E(vib)   ...       0.08 
freq.     721.21  E(vib)   ...       0.07 
freq.     803.27  E(vib)   ...       0.05 
freq.     841.80  E(vib)   ...       0.04 
freq.     882.99  E(vib)   ...       0.04 
freq.     934.97  E(vib)   ...       0.03 
freq.     941.20  E(vib)   ...       0.03 
freq.     982.45  E(vib)   ...       0.02 
freq.     991.13  E(vib)   ...       0.02 
freq.    1034.34  E(vib)   ...       0.02 
freq.    1050.94  E(vib)   ...       0.02 
freq.    1080.23  E(vib)   ...       0.02 
freq.    1097.97  E(vib)   ...       0.02 
freq.    1159.32  E(vib)   ...       0.01 
freq.    1201.56  E(vib)   ...       0.01 
freq.    1237.86  E(vib)   ...       0.01 
freq.    1314.48  E(vib)   ...       0.01 
freq.    1378.80  E(vib)   ...       0.01 
freq.    1421.13  E(vib)   ...       0.00 
freq.    1449.13  E(vib)   ...       0.00 
freq.    1704.13  E(vib)   ...       0.00 
freq.    3175.93  E(vib)   ...       0.00 
freq.    3246.60  E(vib)   ...       0.00 
freq.    3305.30  E(vib)   ...       0.00 
freq.    3346.96  E(vib)   ...       0.00 
freq.    3372.12  E(vib)   ...       0.00 
freq.    3426.74  E(vib)   ...       0.00 
freq.    4013.02  E(vib)   ...       0.00 

------------
INNER ENERGY
------------

The inner energy is: U= E(el) + E(ZPE) + E(vib) + E(rot) + E(trans)
    E(el)   - is the total energy from the electronic structure calculation
              = E(kin-el) + E(nuc-el) + E(el-el) + E(nuc-nuc)
    E(ZPE)  - the the zero temperature vibrational energy from the frequency calculation
    E(vib)  - the the finite temperature correction to E(ZPE) due to population
              of excited vibrational states
    E(rot)  - is the rotational thermal energy
    E(trans)- is the translational thermal energy

Summary of contributions to the inner energy U:
Electronic energy                ...   -344.35728975 Eh
Zero point energy                ...      0.10951801 Eh      68.72 kcal/mol
Thermal vibrational correction   ...      0.00250373 Eh       1.57 kcal/mol
Thermal rotational correction    ...      0.00141627 Eh       0.89 kcal/mol
Thermal translational correction ...      0.00141627 Eh       0.89 kcal/mol
-----------------------------------------------------------------------
Total thermal energy                   -344.24243547 Eh


Summary of corrections to the electronic energy:
(perhaps to be used in another calculation)
Total thermal correction                  0.00533627 Eh       3.35 kcal/mol
Non-thermal (ZPE) correction              0.10951801 Eh      68.72 kcal/mol
-----------------------------------------------------------------------
Total correction                          0.11485428 Eh      72.07 kcal/mol


--------
ENTHALPY
--------

The enthalpy is H = U + kB*T
                kB is Boltzmann's constant
Total free energy                 ...   -344.24243547 Eh 
Thermal Enthalpy correction       ...      0.00094421 Eh       0.59 kcal/mol
-----------------------------------------------------------------------
Total Enthalpy                    ...   -344.24149126 Eh


Note: Only C1 symmetry has been detected, increase convergence thresholds 
      if your molecule has a higher symmetry. Symmetry factor of 1.0 is   
      used for the rotational entropy correction. 
 

Note: Rotational entropy computed according to Herzberg 
Infrared and Raman Spectra, Chapter V,1, Van Nostrand Reinhold, 1945 
Point Group:  C1, Symmetry Number:   1  
Rotational constants in cm-1:     0.206466     0.062700     0.053864 

Vibrational entropy computed according to the QRRHO of S. Grimme
Chem.Eur.J. 2012 18 9955


-------
ENTROPY
-------

The entropy contributions are T*S = T*(S(el)+S(vib)+S(rot)+S(trans))
     S(el)   - electronic entropy
     S(vib)  - vibrational entropy
     S(rot)  - rotational entropy
     S(trans)- translational entropy
The entropies will be listed as multiplied by the temperature to get
units of energy

Electronic entropy                ...      0.00065446 Eh      0.41 kcal/mol
Vibrational entropy               ...      0.00396011 Eh      2.49 kcal/mol
Rotational entropy                ...      0.01294211 Eh      8.12 kcal/mol
Translational entropy             ...      0.01885857 Eh     11.83 kcal/mol
-----------------------------------------------------------------------
Final entropy term                ...      0.03641524 Eh     22.85 kcal/mol

In case the symmetry of your molecule has not been determined correctly
or in case you have a reason to use a different symmetry number we print 
out the resulting rotational entropy values for sn=1,12 :
 --------------------------------------------------------
|  sn= 1 | S(rot)=       0.01294211 Eh      8.12 kcal/mol|
|  sn= 2 | S(rot)=       0.01228765 Eh      7.71 kcal/mol|
|  sn= 3 | S(rot)=       0.01190482 Eh      7.47 kcal/mol|
|  sn= 4 | S(rot)=       0.01163319 Eh      7.30 kcal/mol|
|  sn= 5 | S(rot)=       0.01142250 Eh      7.17 kcal/mol|
|  sn= 6 | S(rot)=       0.01125036 Eh      7.06 kcal/mol|
|  sn= 7 | S(rot)=       0.01110481 Eh      6.97 kcal/mol|
|  sn= 8 | S(rot)=       0.01097874 Eh      6.89 kcal/mol|
|  sn= 9 | S(rot)=       0.01086753 Eh      6.82 kcal/mol|
|  sn=10 | S(rot)=       0.01076805 Eh      6.76 kcal/mol|
|  sn=11 | S(rot)=       0.01067806 Eh      6.70 kcal/mol|
|  sn=12 | S(rot)=       0.01059590 Eh      6.65 kcal/mol|
 --------------------------------------------------------


-------------------
GIBBS FREE ENERGY
-------------------

The Gibbs free energy is G = H - T*S

Total enthalpy                    ...   -344.24149126 Eh 
Total entropy correction          ...     -0.03641524 Eh    -22.85 kcal/mol
-----------------------------------------------------------------------
Final Gibbs free energy         ...   -344.27790650 Eh

For completeness - the Gibbs free energy minus the electronic energy
G-E(el)                           ...      0.07938325 Eh     49.81 kcal/mol


Timings for individual modules:

Sum of individual times         ...       54.381 sec (=   0.906 min)
GTO integral calculation        ...        0.515 sec (=   0.009 min)   0.9 %
SCF iterations                  ...       10.753 sec (=   0.179 min)  19.8 %
Analytical frequency calculation...       43.113 sec (=   0.719 min)  79.3 %
                             ****ORCA TERMINATED NORMALLY****
TOTAL RUN TIME: 0 days 0 hours 0 minutes 54 seconds 845 msec
