
                                 *****************
                                 * O   R   C   A *
                                 *****************

                                            #,                                       
                                            ###                                      
                                            ####                                     
                                            #####                                    
                                            ######                                   
                                           ########,                                 
                                     ,,################,,,,,                         
                               ,,#################################,,                 
                          ,,##########################################,,             
                       ,#########################################, ''#####,          
                    ,#############################################,,   '####,        
                  ,##################################################,,,,####,       
                ,###########''''           ''''###############################       
              ,#####''   ,,,,##########,,,,          '''####'''          '####       
            ,##' ,,,,###########################,,,                        '##       
           ' ,,###''''                  '''############,,,                           
         ,,##''                                '''############,,,,        ,,,,,,###''
      ,#''                                            '''#######################'''  
     '                                                          ''''####''''         
             ,#######,   #######,   ,#######,      ##                                
            ,#'     '#,  ##    ##  ,#'     '#,    #''#        ######   ,####,        
            ##       ##  ##   ,#'  ##            #'  '#       #        #'  '#        
            ##       ##  #######   ##           ,######,      #####,   #    #        
            '#,     ,#'  ##    ##  '#,     ,#' ,#      #,         ##   #,  ,#        
             '#######'   ##     ##  '#######'  #'      '#     #####' # '####'        



                  #######################################################
                  #                        -***-                        #
                  #          Department of theory and spectroscopy      #
                  #    Directorship and core code : Frank Neese         #
                  #        Max Planck Institute fuer Kohlenforschung    #
                  #                Kaiser Wilhelm Platz 1               #
                  #                 D-45470 Muelheim/Ruhr               #
                  #                      Germany                        #
                  #                                                     #
                  #                  All rights reserved                #
                  #                        -***-                        #
                  #######################################################


                         Program Version 5.0.4 -  RELEASE  -


 With contributions from (in alphabetic order):
   Daniel Aravena         : Magnetic Suceptibility
   Michael Atanasov       : Ab Initio Ligand Field Theory (pilot matlab implementation)
   Alexander A. Auer      : GIAO ZORA, VPT2 properties, NMR spectrum
   Ute Becker             : Parallelization
   Giovanni Bistoni       : ED, misc. LED, open-shell LED, HFLD
   Martin Brehm           : Molecular dynamics
   Dmytro Bykov           : SCF Hessian
   Vijay G. Chilkuri      : MRCI spin determinant printing, contributions to CSF-ICE
   Dipayan Datta          : RHF DLPNO-CCSD density
   Achintya Kumar Dutta   : EOM-CC, STEOM-CC
   Dmitry Ganyushin       : Spin-Orbit,Spin-Spin,Magnetic field MRCI
   Miquel Garcia          : C-PCM and meta-GGA Hessian, CC/C-PCM, Gaussian charge scheme
   Yang Guo               : DLPNO-NEVPT2, F12-NEVPT2, CIM, IAO-localization
   Andreas Hansen         : Spin unrestricted coupled pair/coupled cluster methods
   Benjamin Helmich-Paris : MC-RPA, TRAH-SCF, COSX integrals
   Lee Huntington         : MR-EOM, pCC
   Robert Izsak           : Overlap fitted RIJCOSX, COSX-SCS-MP3, EOM
   Marcus Kettner         : VPT2
   Christian Kollmar      : KDIIS, OOCD, Brueckner-CCSD(T), CCSD density, CASPT2, CASPT2-K
   Simone Kossmann        : Meta GGA functionals, TD-DFT gradient, OOMP2, MP2 Hessian
   Martin Krupicka        : Initial AUTO-CI
   Lucas Lang             : DCDCAS
   Marvin Lechner         : AUTO-CI (C++ implementation), FIC-MRCC
   Dagmar Lenk            : GEPOL surface, SMD
   Dimitrios Liakos       : Extrapolation schemes; Compound Job, initial MDCI parallelization
   Dimitrios Manganas     : Further ROCIS development; embedding schemes
   Dimitrios Pantazis     : SARC Basis sets
   Anastasios Papadopoulos: AUTO-CI, single reference methods and gradients
   Taras Petrenko         : DFT Hessian,TD-DFT gradient, ASA, ECA, R-Raman, ABS, FL, XAS/XES, NRVS
   Peter Pinski           : DLPNO-MP2, DLPNO-MP2 Gradient
   Christoph Reimann      : Effective Core Potentials
   Marius Retegan         : Local ZFS, SOC
   Christoph Riplinger    : Optimizer, TS searches, QM/MM, DLPNO-CCSD(T), (RO)-DLPNO pert. Triples
   Tobias Risthaus        : Range-separated hybrids, TD-DFT gradient, RPA, STAB
   Michael Roemelt        : Original ROCIS implementation
   Masaaki Saitow         : Open-shell DLPNO-CCSD energy and density
   Barbara Sandhoefer     : DKH picture change effects
   Avijit Sen             : IP-ROCIS
   Kantharuban Sivalingam : CASSCF convergence, NEVPT2, FIC-MRCI
   Bernardo de Souza      : ESD, SOC TD-DFT
   Georgi Stoychev        : AutoAux, RI-MP2 NMR, DLPNO-MP2 response
   Willem Van den Heuvel  : Paramagnetic NMR
   Boris Wezisla          : Elementary symmetry handling
   Frank Wennmohs         : Technical directorship


 We gratefully acknowledge several colleagues who have allowed us to
 interface, adapt or use parts of their codes:
   Stefan Grimme, W. Hujo, H. Kruse, P. Pracht,  : VdW corrections, initial TS optimization,
                  C. Bannwarth, S. Ehlert          DFT functionals, gCP, sTDA/sTD-DF
   Ed Valeev, F. Pavosevic, A. Kumar             : LibInt (2-el integral package), F12 methods
   Garnet Chan, S. Sharma, J. Yang, R. Olivares  : DMRG
   Ulf Ekstrom                                   : XCFun DFT Library
   Mihaly Kallay                                 : mrcc  (arbitrary order and MRCC methods)
   Jiri Pittner, Ondrej Demel                    : Mk-CCSD
   Frank Weinhold                                : gennbo (NPA and NBO analysis)
   Christopher J. Cramer and Donald G. Truhlar   : smd solvation model
   Lars Goerigk                                  : TD-DFT with DH, B97 family of functionals
   V. Asgeirsson, H. Jonsson                     : NEB implementation
   FAccTs GmbH                                   : IRC, NEB, NEB-TS, DLPNO-Multilevel, CI-OPT
                                                   MM, QMMM, 2- and 3-layer-ONIOM, Crystal-QMMM,
                                                   LR-CPCM, SF, NACMEs, symmetry and pop. for TD-DFT,
                                                   nearIR, NL-DFT gradient (VV10), updates on ESD,
                                                   ML-optimized integration grids
   S Lehtola, MJT Oliveira, MAL Marques          : LibXC Library
   Liviu Ungur et al                             : ANISO software


 Your calculation uses the libint2 library for the computation of 2-el integrals
 For citations please refer to: http://libint.valeyev.net

 Your ORCA version has been built with support for libXC version: 5.1.0
 For citations please refer to: https://tddft.org/programs/libxc/

 This ORCA versions uses:
   CBLAS   interface :  Fast vector & matrix operations
   LAPACKE interface :  Fast linear algebra routines
   SCALAPACK package :  Parallel linear algebra routines
   Shared memory     :  Shared parallel matrices
   BLAS/LAPACK       :  OpenBLAS 0.3.15  USE64BITINT DYNAMIC_ARCH NO_AFFINITY SkylakeX SINGLE_THREADED
        Core in use  :  SkylakeX
   Copyright (c) 2011-2014, The OpenBLAS Project


Your calculation utilizes the atom-pairwise dispersion correction
with the Becke-Johnson damping scheme (D3BJ)
Cite in your paper:
S.Grimme, S.Ehrlich, L.Goerigk, J Comput Chem, (2011), 32, 1456–1465 
S.Grimme, J.Antony, S.Ehrlich and H.Krieg, J.Chem.Phys., 132, (2010), 154104 
   

================================================================================

----- Orbital basis set information -----
Your calculation utilizes the basis: def2-SVP
   F. Weigend and R. Ahlrichs, Phys. Chem. Chem. Phys. 7, 3297 (2005).

----- AuxJ basis set information -----
Your calculation utilizes the auxiliary basis: def2/J
   F. Weigend, Phys. Chem. Chem. Phys. 8, 1057 (2006).

================================================================================
                                        WARNINGS
                       Please study these warnings very carefully!
================================================================================


WARNING: your system is open-shell and RHF/RKS was chosen
  ===> : WILL SWITCH to UHF/UKS


INFO   : the flag for use of the SHARK integral package has been found!

================================================================================
                                       INPUT FILE
================================================================================
NAME = hy-zjC_hl_ad_1-5_0-1_hess_orca.inp
|  1> ! Freq PBE0 RIJCOSX D3BJ def2-SVP def2/J 
|  2> %output 
|  3> xyzfile=True 
|  4> end 
|  5> %scf 
|  6> maxiter 250 
|  7> end
|  8> %output
|  9> Print[P_Hirshfeld] = 1
| 10> end
| 11> % maxcore
| 12> 4000
| 13> %pal nprocs 8
| 14> end
| 15> *xyz 0 2
| 16> O   -2.19866823  -0.95153572   0.99381022 
| 17> O   -0.76850039   0.12632830   1.01753764 
| 18> C   -0.65793155   0.58120606  -0.28552993 
| 19> C    0.52241403   1.40626018   0.13336433 
| 20> C    1.59340067   0.51019733   0.22482010 
| 21> C    1.18134787  -0.71032522  -0.27481930 
| 22> C   -0.09686608  -0.60480012  -1.03842669 
| 23> H   -2.15557097  -1.07063890   1.95402350 
| 24> H   -1.55223837   1.09291778  -0.67103755 
| 25> H    0.46002319   2.42269307   0.52040436 
| 26> H    2.55457048   0.70749737   0.70132163 
| 27> H    1.79498382  -1.61428201  -0.24578881 
| 28> H    0.09171027  -0.43037696  -2.11348348 
| 29> H   -0.76867473  -1.46504117  -0.91619603 
| 30> *
| 31> 
| 32>                          ****END OF INPUT****
================================================================================

                       ****************************
                       * Single Point Calculation *
                       ****************************

---------------------------------
CARTESIAN COORDINATES (ANGSTROEM)
---------------------------------
  O     -2.198668   -0.951536    0.993810
  O     -0.768500    0.126328    1.017538
  C     -0.657932    0.581206   -0.285530
  C      0.522414    1.406260    0.133364
  C      1.593401    0.510197    0.224820
  C      1.181348   -0.710325   -0.274819
  C     -0.096866   -0.604800   -1.038427
  H     -2.155571   -1.070639    1.954023
  H     -1.552238    1.092918   -0.671038
  H      0.460023    2.422693    0.520404
  H      2.554570    0.707497    0.701322
  H      1.794984   -1.614282   -0.245789
  H      0.091710   -0.430377   -2.113483
  H     -0.768675   -1.465041   -0.916196

----------------------------
CARTESIAN COORDINATES (A.U.)
----------------------------
  NO LB      ZA    FRAG     MASS         X           Y           Z
   0 O     8.0000    0    15.999   -4.154881   -1.798142    1.878029
   1 O     8.0000    0    15.999   -1.452255    0.238726    1.922867
   2 C     6.0000    0    12.011   -1.243310    1.098320   -0.539573
   3 C     6.0000    0    12.011    0.987219    2.657447    0.252022
   4 C     6.0000    0    12.011    3.011091    0.964133    0.424848
   5 C     6.0000    0    12.011    2.232424   -1.342320   -0.519333
   6 C     6.0000    0    12.011   -0.183050   -1.142907   -1.962342
   7 H     1.0000    0     1.008   -4.073439   -2.023214    3.692569
   8 H     1.0000    0     1.008   -2.933305    2.065315   -1.268077
   9 H     1.0000    0     1.008    0.869318    4.578226    0.983422
  10 H     1.0000    0     1.008    4.827439    1.336976    1.325306
  11 H     1.0000    0     1.008    3.392028   -3.050551   -0.464474
  12 H     1.0000    0     1.008    0.173307   -0.813295   -3.993905
  13 H     1.0000    0     1.008   -1.452585   -2.768527   -1.731360

--------------------------------
INTERNAL COORDINATES (ANGSTROEM)
--------------------------------
 O      0   0   0     0.000000000000     0.00000000     0.00000000
 O      1   0   0     1.791014764495     0.00000000     0.00000000
 C      2   1   0     1.384602591687   104.41903375     0.00000000
 C      3   2   1     1.499800783509    88.89521580   178.54003674
 C      4   3   2     1.399394573405   105.56406000    77.67576239
 C      5   4   3     1.381702694171   108.28588431     7.98288709
 C      6   5   4     1.492669653596   112.20467092    14.08959151
 H      1   2   3     0.968531096245    91.45207058   185.60103666
 H      3   2   1     1.100113493128   114.68852402    57.10942331
 H      4   3   2     1.089416551009   124.56992531   271.49423275
 H      5   4   3     1.090792563933   125.95182195   193.75526299
 H      6   5   4     1.092945436273   123.61155651   185.32515815
 H      7   6   5     1.105319673329   111.26148338    91.62016107
 H      7   6   5     1.098308636297   114.29848012   216.47457912

---------------------------
INTERNAL COORDINATES (A.U.)
---------------------------
 O      0   0   0     0.000000000000     0.00000000     0.00000000
 O      1   0   0     3.384527406706     0.00000000     0.00000000
 C      2   1   0     2.616519702607   104.41903375     0.00000000
 C      3   2   1     2.834212736273    88.89521580   178.54003674
 C      4   3   2     2.644472497031   105.56406000    77.67576239
 C      5   4   3     2.611039690484   108.28588431     7.98288709
 C      6   5   4     2.820736853712   112.20467092    14.08959151
 H      1   2   3     1.830258524090    91.45207058   185.60103666
 H      3   2   1     2.078913218243   114.68852402    57.10942331
 H      4   3   2     2.058698927168   124.56992531   271.49423275
 H      5   4   3     2.061299214751   125.95182195   193.75526299
 H      6   5   4     2.065367553874   123.61155651   185.32515815
 H      7   6   5     2.088751473028   111.26148338    91.62016107
 H      7   6   5     2.075502533121   114.29848012   216.47457912

---------------------
BASIS SET INFORMATION
---------------------
There are 3 groups of distinct atoms

 Group   1 Type O   : 7s4p1d contracted to 3s2p1d pattern {511/31/1}
 Group   2 Type C   : 7s4p1d contracted to 3s2p1d pattern {511/31/1}
 Group   3 Type H   : 4s1p contracted to 2s1p pattern {31/1}

Atom   0O    basis set group =>   1
Atom   1O    basis set group =>   1
Atom   2C    basis set group =>   2
Atom   3C    basis set group =>   2
Atom   4C    basis set group =>   2
Atom   5C    basis set group =>   2
Atom   6C    basis set group =>   2
Atom   7H    basis set group =>   3
Atom   8H    basis set group =>   3
Atom   9H    basis set group =>   3
Atom  10H    basis set group =>   3
Atom  11H    basis set group =>   3
Atom  12H    basis set group =>   3
Atom  13H    basis set group =>   3
---------------------------------
AUXILIARY/J BASIS SET INFORMATION
---------------------------------
There are 3 groups of distinct atoms

 Group   1 Type O   : 12s5p4d2f1g contracted to 6s4p3d1f1g pattern {711111/2111/211/2/1}
 Group   2 Type C   : 12s5p4d2f1g contracted to 6s4p3d1f1g pattern {711111/2111/211/2/1}
 Group   3 Type H   : 5s2p1d contracted to 3s1p1d pattern {311/2/1}

Atom   0O    basis set group =>   1
Atom   1O    basis set group =>   1
Atom   2C    basis set group =>   2
Atom   3C    basis set group =>   2
Atom   4C    basis set group =>   2
Atom   5C    basis set group =>   2
Atom   6C    basis set group =>   2
Atom   7H    basis set group =>   3
Atom   8H    basis set group =>   3
Atom   9H    basis set group =>   3
Atom  10H    basis set group =>   3
Atom  11H    basis set group =>   3
Atom  12H    basis set group =>   3
Atom  13H    basis set group =>   3


           ************************************************************
           *        Program running with 8 parallel MPI-processes     *
           *              working on a common directory               *
           ************************************************************
------------------------------------------------------------------------------
                           ORCA GTO INTEGRAL CALCULATION
                           -- RI-GTO INTEGRALS CHOSEN --
------------------------------------------------------------------------------
------------------------------------------------------------------------------
                   ___                                                        
                  /   \      - P O W E R E D   B Y -                         
                 /     \                                                     
                 |  |  |   _    _      __       _____    __    __             
                 |  |  |  | |  | |    /  \     |  _  \  |  |  /  |          
                  \  \/   | |  | |   /    \    | | | |  |  | /  /          
                 / \  \   | |__| |  /  /\  \   | |_| |  |  |/  /          
                |  |  |   |  __  | /  /__\  \  |    /   |      \           
                |  |  |   | |  | | |   __   |  |    \   |  |\   \          
                \     /   | |  | | |  |  |  |  | |\  \  |  | \   \       
                 \___/    |_|  |_| |__|  |__|  |_| \__\ |__|  \__/        
                                                                              
                      - O R C A' S   B I G   F R I E N D -                    
                                      &                                       
                       - I N T E G R A L  F E E D E R -                       
                                                                              
 v1 FN, 2020, v2 2021                                                         
------------------------------------------------------------------------------


Reading SHARK input file hy-zjC_hl_ad_1-5_0-1_hess_orca.SHARKINP.tmp ... ok
----------------------
SHARK INTEGRAL PACKAGE
----------------------

Number of atoms                             ...     14
Number of basis functions                   ...    133
Number of shells                            ...     63
Maximum angular momentum                    ...      2
Integral batch strategy                     ... SHARK/LIBINT Hybrid
RI-J (if used) integral strategy            ... SPLIT-RIJ (Revised 2003 algorithm where possible)
Printlevel                                  ...      1
Contraction scheme used                     ... SEGMENTED contraction
Coulomb Range Separation                    ... NOT USED
Exchange Range Separation                   ... NOT USED
Finite Nucleus Model                        ... NOT USED
Auxiliary Coulomb fitting basis             ... AVAILABLE
   # of basis functions in Aux-J            ...    420
   # of shells in Aux-J                     ...    140
   Maximum angular momentum in Aux-J        ...      4
Auxiliary J/K fitting basis                 ... NOT available
Auxiliary Correlation fitting basis         ... NOT available
Auxiliary 'external' fitting basis          ... NOT available
Integral threshold                          ...     1.000000e-10
Primitive cut-off                           ...     1.000000e-11
Primitive pair pre-selection threshold      ...     1.000000e-11

Calculating pre-screening integrals         ... done (  0.0 sec) Dimension = 63
Organizing shell pair data                  ... done (  0.0 sec)
Shell pair information
Total number of shell pairs                 ...      2016
Shell pairs after pre-screening             ...      1955
Total number of primitive shell pairs       ...      7252
Primitive shell pairs kept                  ...      5314
          la=0 lb=0:    607 shell pairs
          la=1 lb=0:    714 shell pairs
          la=1 lb=1:    224 shell pairs
          la=2 lb=0:    238 shell pairs
          la=2 lb=1:    144 shell pairs
          la=2 lb=2:     28 shell pairs

Calculating one electron integrals          ... done (  0.0 sec)
Calculating RI/J V-Matrix + Cholesky decomp.... done (  0.0 sec)
Calculating Nuclear repulsion               ... done (  0.0 sec) ENN=    302.924028490336 Eh

SHARK setup successfully completed in   0.1 seconds

Maximum memory used throughout the entire GTOINT-calculation: 10.7 MB


           ************************************************************
           *        Program running with 8 parallel MPI-processes     *
           *              working on a common directory               *
           ************************************************************
-------------------------------------------------------------------------------
                                 ORCA SCF
-------------------------------------------------------------------------------

------------
SCF SETTINGS
------------
Hamiltonian:
 Density Functional     Method          .... DFT(GTOs)
 Exchange Functional    Exchange        .... PBE
   PBE kappa parameter   XKappa         ....  0.804000
   PBE mue parameter    XMuePBE         ....  0.219520
 Correlation Functional Correlation     .... PBE
   PBE beta parameter  CBetaPBE         ....  0.066725
 LDA part of GGA corr.  LDAOpt          .... PW91-LDA
 Gradients option       PostSCFGGA      .... off
 Hybrid DFT is turned on
   Fraction HF Exchange ScalHFX         ....  0.250000
   Scaling of DF-GGA-X  ScalDFX         ....  0.750000
   Scaling of DF-GGA-C  ScalDFC         ....  1.000000
   Scaling of DF-LDA-C  ScalLDAC        ....  1.000000
   Perturbative correction              ....  0.000000
   Density functional embedding theory  .... OFF
   NL short-range parameter             ....  6.900000
 RI-approximation to the Coulomb term is turned on
   Number of AuxJ basis functions       .... 420
   RIJ-COSX (HFX calculated with COS-X)).... on


General Settings:
 Integral files         IntName         .... hy-zjC_hl_ad_1-5_0-1_hess_orca
 Hartree-Fock type      HFTyp           .... UHF
 Total Charge           Charge          ....    0
 Multiplicity           Mult            ....    2
 Number of Electrons    NEL             ....   53
 Basis Dimension        Dim             ....  133
 Nuclear Repulsion      ENuc            ....    302.9240284903 Eh

Convergence Acceleration:
 DIIS                   CNVDIIS         .... on
   Start iteration      DIISMaxIt       ....    12
   Startup error        DIISStart       ....  0.200000
   # of expansion vecs  DIISMaxEq       ....     5
   Bias factor          DIISBfac        ....   1.050
   Max. coefficient     DIISMaxC        ....  10.000
 Trust-Rad. Augm. Hess. CNVTRAH         .... auto
   Auto Start mean grad. ratio tolernc. ....  1.125000
   Auto Start start iteration           ....    20
   Auto Start num. interpolation iter.  ....    10
   Max. Number of Micro iterations      ....    16
   Max. Number of Macro iterations      .... Maxiter - #DIIS iter
   Number of Davidson start vectors     ....     2
   Converg. threshold I  (grad. norm)   ....   5.000e-05
   Converg. threshold II (energy diff.) ....   1.000e-06
   Grad. Scal. Fac. for Micro threshold ....   0.100
   Minimum threshold for Micro iter.    ....   0.010
   NR start threshold (gradient norm)   ....   0.001
   Initial trust radius                 ....   0.400
   Minimum AH scaling param. (alpha)    ....   1.000
   Maximum AH scaling param. (alpha)    .... 1000.000
   Orbital update algorithm             .... Taylor
   White noise on init. David. guess    .... on
   Maximum white noise                  ....   0.010
   Quad. conv. algorithm                .... NR
 SOSCF                  CNVSOSCF        .... off
 Level Shifting         CNVShift        .... on
   Level shift para.    LevelShift      ....    0.2500
   Turn off err/grad.   ShiftErr        ....    0.0010
 Zerner damping         CNVZerner       .... off
 Static damping         CNVDamp         .... on
   Fraction old density DampFac         ....    0.7000
   Max. Damping (<1)    DampMax         ....    0.9800
   Min. Damping (>=0)   DampMin         ....    0.0000
   Turn off err/grad.   DampErr         ....    0.1000
 Fernandez-Rico         CNVRico         .... off

SCF Procedure:
 Maximum # iterations   MaxIter         ....   250
 SCF integral mode      SCFMode         .... Direct
   Integral package                     .... SHARK and LIBINT hybrid scheme
 Reset frequency        DirectResetFreq ....    20
 Integral Threshold     Thresh          ....  1.000e-10 Eh
 Primitive CutOff       TCut            ....  1.000e-11 Eh

Convergence Tolerance:
 Convergence Check Mode ConvCheckMode   .... Total+1el-Energy
 Convergence forced     ConvForced      .... 0
 Energy Change          TolE            ....  1.000e-06 Eh
 1-El. energy change                    ....  1.000e-03 Eh
 DIIS Error             TolErr          ....  1.000e-06


Diagonalization of the overlap matrix:
Smallest eigenvalue                        ... 8.489e-04
Time for diagonalization                   ...    0.003 sec
Threshold for overlap eigenvalues          ... 1.000e-08
Number of eigenvalues below threshold      ... 0
Time for construction of square roots      ...    0.002 sec
Total time needed                          ...    0.004 sec

Time for model grid setup =    0.042 sec

------------------------------
INITIAL GUESS: MODEL POTENTIAL
------------------------------
Loading Hartree-Fock densities                     ... done
Calculating cut-offs                               ... done
Initializing the effective Hamiltonian             ... done
Setting up the integral package (SHARK)            ... done
Starting the Coulomb interaction                   ... done (   0.0 sec)
Reading the grid                                   ... done
Mapping shells                                     ... done
Starting the XC term evaluation                    ... done (   0.0 sec)
  promolecular density results
     # of electrons  =     52.996527596
     EX              =    -43.849478148
     EC              =     -1.753905721
     EX+EC           =    -45.603383870
Transforming the Hamiltonian                       ... done (   0.0 sec)
Diagonalizing the Hamiltonian                      ... done (   0.0 sec)
Back transforming the eigenvectors                 ... done (   0.0 sec)
Now organizing SCF variables                       ... done
                      ------------------
                      INITIAL GUESS DONE (   0.1 sec)
                      ------------------
-------------------
DFT GRID GENERATION
-------------------

General Integration Accuracy     IntAcc      ... 4.388
Radial Grid Type                 RadialGrid  ... OptM3 with GC (2021)
Angular Grid (max. ang.)         AngularGrid ... 4 (Lebedev-302)
Angular grid pruning method      GridPruning ... 4 (adaptive)
Weight generation scheme         WeightScheme... Becke
Basis function cutoff            BFCut       ... 1.0000e-10
Integration weight cutoff        WCut        ... 1.0000e-14
Angular grids for H and He will be reduced by one unit
Partially contracted basis set               ... off
Rotationally invariant grid construction     ... off

Total number of grid points                  ...    64848
Total number of batches                      ...     1022
Average number of points per batch           ...       63
Average number of grid points per atom       ...     4632
Time for grid setup =    0.246 sec

--------------------
COSX GRID GENERATION
--------------------

GRIDX 1
-------
General Integration Accuracy     IntAcc      ... 3.816
Radial Grid Type                 RadialGrid  ... OptM3 with GC (2021)
Angular Grid (max. ang.)         AngularGrid ... 1 (Lebedev-50)
Angular grid pruning method      GridPruning ... 4 (adaptive)
Weight generation scheme         WeightScheme... Becke
Basis function cutoff            BFCut       ... 1.0000e-10
Integration weight cutoff        WCut        ... 1.0000e-14
Angular grids for H and He will be reduced by one unit
Partially contracted basis set               ... on
Rotationally invariant grid construction     ... off

Total number of grid points                  ...     8290
Total number of batches                      ...      136
Average number of points per batch           ...       60
Average number of grid points per atom       ...      592
UseSFitting                                  ... on

GRIDX 2
-------
General Integration Accuracy     IntAcc      ... 4.020
Radial Grid Type                 RadialGrid  ... OptM3 with GC (2021)
Angular Grid (max. ang.)         AngularGrid ... 2 (Lebedev-110)
Angular grid pruning method      GridPruning ... 4 (adaptive)
Weight generation scheme         WeightScheme... Becke
Basis function cutoff            BFCut       ... 1.0000e-10
Integration weight cutoff        WCut        ... 1.0000e-14
Angular grids for H and He will be reduced by one unit
Partially contracted basis set               ... on
Rotationally invariant grid construction     ... off

Total number of grid points                  ...    18020
Total number of batches                      ...      287
Average number of points per batch           ...       62
Average number of grid points per atom       ...     1287
UseSFitting                                  ... on

GRIDX 3
-------
General Integration Accuracy     IntAcc      ... 4.338
Radial Grid Type                 RadialGrid  ... OptM3 with GC (2021)
Angular Grid (max. ang.)         AngularGrid ... 3 (Lebedev-194)
Angular grid pruning method      GridPruning ... 4 (adaptive)
Weight generation scheme         WeightScheme... Becke
Basis function cutoff            BFCut       ... 1.0000e-10
Integration weight cutoff        WCut        ... 1.0000e-14
Angular grids for H and He will be reduced by one unit
Partially contracted basis set               ... on
Rotationally invariant grid construction     ... off

Total number of grid points                  ...    39599
Total number of batches                      ...      625
Average number of points per batch           ...       63
Average number of grid points per atom       ...     2828
UseSFitting                                  ... on

Time for X-Grid setup             =    0.179 sec

--------------
SCF ITERATIONS
--------------
ITER       Energy         Delta-E        Max-DP      RMS-DP      [F,P]     Damp
               ***  Starting incremental Fock matrix formation  ***
  0   -344.1745396504   0.000000000000 0.04587018  0.00131482  0.1289290 0.7000
  1   -344.2473751168  -0.072835466420 0.02739623  0.00089458  0.0473155 0.7000
                               ***Turning on DIIS***
  2   -344.2750887921  -0.027713675296 0.03742479  0.00152611  0.0167925 0.0000
  3   -344.3214446524  -0.046355860263 0.02287032  0.00074901  0.0307896 0.0000
  4   -344.3321466988  -0.010702046428 0.00806978  0.00027946  0.0098803 0.0000
  5   -344.3336231139  -0.001476415154 0.00567178  0.00015599  0.0059366 0.0000
  6   -344.3343964158  -0.000773301864 0.00619053  0.00016109  0.0032011 0.0000
  7   -344.3349943321  -0.000597916320 0.00491627  0.00011965  0.0028874 0.0000
  8   -344.3354030893  -0.000408757161 0.00511686  0.00014043  0.0020905 0.0000
  9   -344.3357620699  -0.000358980628 0.00356066  0.00009381  0.0015731 0.0000
 10   -344.3359472159  -0.000185146004 0.00340763  0.00007694  0.0012824 0.0000
 11   -344.3360668055  -0.000119589622 0.00349235  0.00007596  0.0010892 0.0000
 12   -344.3361565739  -0.000089768382 0.00532041  0.00010378  0.0009860 0.0000
               *** Restarting incremental Fock matrix formation ***
                                   *** Resetting DIIS ***
 13   -344.3361920327  -0.000035458820 0.00158185  0.00002507  0.0010048 0.0000
 14   -344.3361950271  -0.000002994319 0.00077869  0.00001266  0.0014485 0.0000
 15   -344.3362042867  -0.000009259595 0.00124257  0.00002095  0.0007092 0.0000
 16   -344.3362119505  -0.000007663891 0.00152634  0.00002764  0.0004130 0.0000
 17   -344.3362193589  -0.000007408396 0.00130408  0.00002471  0.0002717 0.0000
 18   -344.3362231732  -0.000003814300 0.00083008  0.00001444  0.0001511 0.0000
 19   -344.3362242101  -0.000001036842 0.00034851  0.00000569  0.0000566 0.0000
                 **** Energy Check signals convergence ****

               *****************************************************
               *                     SUCCESS                       *
               *           SCF CONVERGED AFTER  20 CYCLES          *
               *****************************************************

Old exchange energy                            =    -11.160623052 Eh
New exchange energy                            =    -11.160656223 Eh
Exchange energy change after final integration =     -0.000033171 Eh
Total energy after final integration           =   -344.336257542 Eh
Final COS-X integration done in                =     0.655 sec

----------------
TOTAL SCF ENERGY
----------------

Total Energy       :         -344.33625754 Eh           -9369.86592 eV

Components:
Nuclear Repulsion  :          302.92402849 Eh            8242.98188 eV
Electronic Energy  :         -647.26028603 Eh          -17612.84780 eV
One Electron Energy:        -1069.30219745 Eh          -29097.19207 eV
Two Electron Energy:          422.04191142 Eh           11484.34426 eV
Max COSX asymmetry :            0.00000138 Eh               0.00004 eV

Virial components:
Potential Energy   :         -685.80268099 Eh          -18661.63969 eV
Kinetic Energy     :          341.46642345 Eh            9291.77377 eV
Virial Ratio       :            2.00840444


DFT components:
N(Alpha)           :       27.000008172564 electrons
N(Beta)            :       26.000004896958 electrons
N(Total)           :       53.000013069521 electrons
E(X)               :      -33.441971602714 Eh       
E(C)               :       -1.766707478255 Eh       
E(XC)              :      -35.208679080969 Eh       
DFET-embed. en.    :        0.000000000000 Eh       

---------------
SCF CONVERGENCE
---------------

  Last Energy change         ...   -1.6098e-07  Tolerance :   1.0000e-06
  Last MAX-Density change    ...    0.0000e+00  Tolerance :   1.0000e-05
  Last RMS-Density change    ...    0.0000e+00  Tolerance :   1.0000e-06
  Last DIIS Error            ...    4.3484e-05  Tolerance :   1.0000e-06

             **** THE GBW FILE WAS UPDATED (hy-zjC_hl_ad_1-5_0-1_hess_orca.gbw) ****
             **** DENSITY hy-zjC_hl_ad_1-5_0-1_hess_orca.scfp WAS UPDATED ****
             **** ENERGY FILE WAS UPDATED (hy-zjC_hl_ad_1-5_0-1_hess_orca.en.tmp) ****
----------------------
UHF SPIN CONTAMINATION
----------------------

Warning: in a DFT calculation there is little theoretical justification to 
         calculate <S**2> as in Hartree-Fock theory. We will do it anyways
         but you should keep in mind that the values have only limited relevance

Expectation value of <S**2>     :     0.875627
Ideal value S*(S+1) for S=0.5   :     0.750000
Deviation                       :     0.125627

             **** THE GBW FILE WAS UPDATED (hy-zjC_hl_ad_1-5_0-1_hess_orca.gbw) ****
             **** DENSITY hy-zjC_hl_ad_1-5_0-1_hess_orca.scfp WAS UPDATED ****
----------------
ORBITAL ENERGIES
----------------
                 SPIN UP ORBITALS
  NO   OCC          E(Eh)            E(eV) 
   0   1.0000     -19.245494      -523.6965 
   1   1.0000     -19.219240      -522.9821 
   2   1.0000     -10.288214      -279.9565 
   3   1.0000     -10.269835      -279.4564 
   4   1.0000     -10.258101      -279.1371 
   5   1.0000     -10.247706      -278.8543 
   6   1.0000     -10.234302      -278.4895 
   7   1.0000      -1.054112       -28.6838 
   8   1.0000      -0.955207       -25.9925 
   9   1.0000      -0.858368       -23.3574 
  10   1.0000      -0.744654       -20.2631 
  11   1.0000      -0.706476       -19.2242 
  12   1.0000      -0.581510       -15.8237 
  13   1.0000      -0.562763       -15.3136 
  14   1.0000      -0.551698       -15.0125 
  15   1.0000      -0.485520       -13.2117 
  16   1.0000      -0.465615       -12.6700 
  17   1.0000      -0.435225       -11.8431 
  18   1.0000      -0.413726       -11.2580 
  19   1.0000      -0.407080       -11.0772 
  20   1.0000      -0.399318       -10.8660 
  21   1.0000      -0.378177       -10.2907 
  22   1.0000      -0.357092        -9.7170 
  23   1.0000      -0.319547        -8.6953 
  24   1.0000      -0.313639        -8.5346 
  25   1.0000      -0.264045        -7.1850 
  26   1.0000      -0.211612        -5.7583 
  27   0.0000      -0.065706        -1.7879 
  28   0.0000       0.032323         0.8795 
  29   0.0000       0.079121         2.1530 
  30   0.0000       0.102750         2.7960 
  31   0.0000       0.118371         3.2210 
  32   0.0000       0.121183         3.2976 
  33   0.0000       0.135373         3.6837 
  34   0.0000       0.141476         3.8498 
  35   0.0000       0.155193         4.2230 
  36   0.0000       0.198568         5.4033 
  37   0.0000       0.213882         5.8200 
  38   0.0000       0.225539         6.1372 
  39   0.0000       0.269766         7.3407 
  40   0.0000       0.332781         9.0554 
  41   0.0000       0.373530        10.1643 
  42   0.0000       0.393147        10.6981 
  43   0.0000       0.436434        11.8760 
  44   0.0000       0.463901        12.6234 
  45   0.0000       0.485390        13.2081 
  46   0.0000       0.500207        13.6113 
  47   0.0000       0.528604        14.3840 
  48   0.0000       0.550073        14.9682 
  49   0.0000       0.573924        15.6173 
  50   0.0000       0.587392        15.9837 
  51   0.0000       0.607213        16.5231 
  52   0.0000       0.615778        16.7562 
  53   0.0000       0.631702        17.1895 
  54   0.0000       0.644919        17.5491 
  55   0.0000       0.653724        17.7887 
  56   0.0000       0.673422        18.3247 
  57   0.0000       0.692091        18.8328 
  58   0.0000       0.693836        18.8802 
  59   0.0000       0.709477        19.3059 
  60   0.0000       0.726764        19.7763 
  61   0.0000       0.738790        20.1035 
  62   0.0000       0.781327        21.2610 
  63   0.0000       0.792913        21.5763 
  64   0.0000       0.837162        22.7803 
  65   0.0000       0.873228        23.7617 
  66   0.0000       0.946109        25.7449 
  67   0.0000       0.989816        26.9343 
  68   0.0000       1.024337        27.8736 
  69   0.0000       1.047958        28.5164 
  70   0.0000       1.088122        29.6093 
  71   0.0000       1.098801        29.8999 
  72   0.0000       1.136501        30.9258 
  73   0.0000       1.180099        32.1121 
  74   0.0000       1.207471        32.8570 
  75   0.0000       1.259928        34.2844 
  76   0.0000       1.275073        34.6965 
  77   0.0000       1.332985        36.2724 
  78   0.0000       1.391918        37.8760 
  79   0.0000       1.459381        39.7118 
  80   0.0000       1.479493        40.2590 
  81   0.0000       1.551402        42.2158 
  82   0.0000       1.590556        43.2812 
  83   0.0000       1.615058        43.9480 
  84   0.0000       1.640138        44.6304 
  85   0.0000       1.643118        44.7115 
  86   0.0000       1.672180        45.5023 
  87   0.0000       1.686032        45.8793 
  88   0.0000       1.701076        46.2886 
  89   0.0000       1.739025        47.3213 
  90   0.0000       1.780330        48.4452 
  91   0.0000       1.809875        49.2492 
  92   0.0000       1.831227        49.8302 
  93   0.0000       1.855904        50.5017 
  94   0.0000       1.877727        51.0955 
  95   0.0000       1.899951        51.7003 
  96   0.0000       1.914820        52.1049 
  97   0.0000       1.943005        52.8719 
  98   0.0000       1.963947        53.4417 
  99   0.0000       2.024409        55.0870 
 100   0.0000       2.043730        55.6127 
 101   0.0000       2.057369        55.9839 
 102   0.0000       2.084637        56.7258 
 103   0.0000       2.101724        57.1908 
 104   0.0000       2.235415        60.8287 
 105   0.0000       2.242305        61.0162 
 106   0.0000       2.280751        62.0624 
 107   0.0000       2.316219        63.0275 
 108   0.0000       2.377261        64.6886 
 109   0.0000       2.404526        65.4305 
 110   0.0000       2.442138        66.4540 
 111   0.0000       2.476133        67.3790 
 112   0.0000       2.510021        68.3012 
 113   0.0000       2.604985        70.8852 
 114   0.0000       2.624995        71.4297 
 115   0.0000       2.660765        72.4031 
 116   0.0000       2.700522        73.4849 
 117   0.0000       2.723261        74.1037 
 118   0.0000       2.740545        74.5740 
 119   0.0000       2.768373        75.3313 
 120   0.0000       2.813205        76.5512 
 121   0.0000       2.850290        77.5603 
 122   0.0000       2.931661        79.7746 
 123   0.0000       2.964603        80.6709 
 124   0.0000       3.011060        81.9351 
 125   0.0000       3.033724        82.5518 
 126   0.0000       3.077389        83.7400 
 127   0.0000       3.089489        84.0693 
 128   0.0000       3.153915        85.8224 
 129   0.0000       3.209561        87.3366 
 130   0.0000       3.428232        93.2869 
 131   0.0000       3.463587        94.2490 
 132   0.0000       3.751818       102.0922 

                 SPIN DOWN ORBITALS
  NO   OCC          E(Eh)            E(eV) 
   0   1.0000     -19.249333      -523.8010 
   1   1.0000     -19.207186      -522.6541 
   2   1.0000     -10.288567      -279.9662 
   3   1.0000     -10.262662      -279.2612 
   4   1.0000     -10.251476      -278.9569 
   5   1.0000     -10.248786      -278.8836 
   6   1.0000     -10.234869      -278.5050 
   7   1.0000      -1.056029       -28.7360 
   8   1.0000      -0.929292       -25.2873 
   9   1.0000      -0.851476       -23.1698 
  10   1.0000      -0.740055       -20.1379 
  11   1.0000      -0.696023       -18.9397 
  12   1.0000      -0.576834       -15.6964 
  13   1.0000      -0.560032       -15.2392 
  14   1.0000      -0.545722       -14.8498 
  15   1.0000      -0.479431       -13.0460 
  16   1.0000      -0.462302       -12.5799 
  17   1.0000      -0.428056       -11.6480 
  18   1.0000      -0.409873       -11.1532 
  19   1.0000      -0.402929       -10.9642 
  20   1.0000      -0.394601       -10.7376 
  21   1.0000      -0.375556       -10.2194 
  22   1.0000      -0.341063        -9.2808 
  23   1.0000      -0.311405        -8.4737 
  24   1.0000      -0.287592        -7.8258 
  25   1.0000      -0.257287        -7.0011 
  26   0.0000      -0.088625        -2.4116 
  27   0.0000      -0.034645        -0.9427 
  28   0.0000       0.054281         1.4771 
  29   0.0000       0.081027         2.2048 
  30   0.0000       0.106512         2.8983 
  31   0.0000       0.120797         3.2871 
  32   0.0000       0.124133         3.3778 
  33   0.0000       0.138324         3.7640 
  34   0.0000       0.143855         3.9145 
  35   0.0000       0.157925         4.2974 
  36   0.0000       0.202175         5.5015 
  37   0.0000       0.216616         5.8944 
  38   0.0000       0.228039         6.2053 
  39   0.0000       0.276879         7.5343 
  40   0.0000       0.336144         9.1469 
  41   0.0000       0.380126        10.3438 
  42   0.0000       0.392909        10.6916 
  43   0.0000       0.445425        12.1206 
  44   0.0000       0.469928        12.7874 
  45   0.0000       0.494399        13.4533 
  46   0.0000       0.511054        13.9065 
  47   0.0000       0.543458        14.7882 
  48   0.0000       0.552302        15.0289 
  49   0.0000       0.587934        15.9985 
  50   0.0000       0.596468        16.2307 
  51   0.0000       0.613284        16.6883 
  52   0.0000       0.623831        16.9753 
  53   0.0000       0.636979        17.3331 
  54   0.0000       0.651363        17.7245 
  55   0.0000       0.661417        17.9981 
  56   0.0000       0.676678        18.4133 
  57   0.0000       0.693399        18.8683 
  58   0.0000       0.697818        18.9886 
  59   0.0000       0.711422        19.3588 
  60   0.0000       0.730696        19.8833 
  61   0.0000       0.741707        20.1829 
  62   0.0000       0.785049        21.3623 
  63   0.0000       0.798195        21.7200 
  64   0.0000       0.841303        22.8930 
  65   0.0000       0.875003        23.8100 
  66   0.0000       0.956269        26.0214 
  67   0.0000       0.998752        27.1774 
  68   0.0000       1.042447        28.3664 
  69   0.0000       1.054173        28.6855 
  70   0.0000       1.089478        29.6462 
  71   0.0000       1.102245        29.9936 
  72   0.0000       1.141298        31.0563 
  73   0.0000       1.183576        32.2067 
  74   0.0000       1.215357        33.0715 
  75   0.0000       1.267656        34.4947 
  76   0.0000       1.286803        35.0157 
  77   0.0000       1.339933        36.4614 
  78   0.0000       1.396496        38.0006 
  79   0.0000       1.460106        39.7315 
  80   0.0000       1.479513        40.2596 
  81   0.0000       1.560054        42.4512 
  82   0.0000       1.595223        43.4082 
  83   0.0000       1.619450        44.0675 
  84   0.0000       1.642526        44.6954 
  85   0.0000       1.644689        44.7543 
  86   0.0000       1.678074        45.6627 
  87   0.0000       1.690014        45.9876 
  88   0.0000       1.701746        46.3069 
  89   0.0000       1.743757        47.4500 
  90   0.0000       1.783319        48.5266 
  91   0.0000       1.812042        49.3082 
  92   0.0000       1.837492        50.0007 
  93   0.0000       1.860335        50.6223 
  94   0.0000       1.884218        51.2722 
  95   0.0000       1.908169        51.9239 
  96   0.0000       1.922956        52.3263 
  97   0.0000       1.955612        53.2149 
  98   0.0000       1.970552        53.6214 
  99   0.0000       2.029374        55.2221 
 100   0.0000       2.049027        55.7569 
 101   0.0000       2.063874        56.1609 
 102   0.0000       2.085461        56.7483 
 103   0.0000       2.104199        57.2582 
 104   0.0000       2.243173        61.0398 
 105   0.0000       2.247948        61.1698 
 106   0.0000       2.285195        62.1833 
 107   0.0000       2.330056        63.4040 
 108   0.0000       2.391767        65.0833 
 109   0.0000       2.412477        65.6468 
 110   0.0000       2.446874        66.5828 
 111   0.0000       2.482138        67.5424 
 112   0.0000       2.519211        68.5512 
 113   0.0000       2.609687        71.0132 
 114   0.0000       2.632353        71.6300 
 115   0.0000       2.669389        72.6378 
 116   0.0000       2.704230        73.5858 
 117   0.0000       2.734829        74.4185 
 118   0.0000       2.744986        74.6949 
 119   0.0000       2.768341        75.3304 
 120   0.0000       2.816114        76.6304 
 121   0.0000       2.852378        77.6172 
 122   0.0000       2.935155        79.8696 
 123   0.0000       2.976656        80.9989 
 124   0.0000       3.015342        82.0516 
 125   0.0000       3.044836        82.8542 
 126   0.0000       3.080990        83.8380 
 127   0.0000       3.091873        84.1341 
 128   0.0000       3.157567        85.9218 
 129   0.0000       3.218439        87.5782 
 130   0.0000       3.430373        93.3452 
 131   0.0000       3.459028        94.1249 
 132   0.0000       3.761790       102.3635 

                    ********************************
                    * MULLIKEN POPULATION ANALYSIS *
                    ********************************

--------------------------------------------
MULLIKEN ATOMIC CHARGES AND SPIN POPULATIONS
--------------------------------------------
   0 O :   -0.261302    0.427352
   1 O :   -0.276828   -0.176422
   2 C :    0.038582   -0.033856
   3 C :   -0.007844    0.522921
   4 C :    0.001648   -0.289388
   5 C :   -0.069835    0.623525
   6 C :    0.095421   -0.051517
   7 H :    0.178502   -0.009489
   8 H :    0.042152    0.002118
   9 H :    0.055555   -0.025015
  10 H :    0.036454    0.010551
  11 H :    0.036891   -0.030268
  12 H :    0.057870    0.025364
  13 H :    0.072734    0.004125
Sum of atomic charges         :    0.0000000
Sum of atomic spin populations:    1.0000000

-----------------------------------------------------
MULLIKEN REDUCED ORBITAL CHARGES AND SPIN POPULATIONS
-----------------------------------------------------
CHARGE
  0 O s       :     3.841634  s :     3.841634
      pz      :     1.336093  p :     4.411530
      px      :     1.455152
      py      :     1.620286
      dz2     :     0.004940  d :     0.008137
      dxz     :     0.000750
      dyz     :     0.000778
      dx2y2   :     0.000454
      dxy     :     0.001215
  1 O s       :     3.899164  s :     3.899164
      pz      :     1.418045  p :     4.363053
      px      :     1.442790
      py      :     1.502218
      dz2     :     0.005591  d :     0.014611
      dxz     :     0.002385
      dyz     :     0.003210
      dx2y2   :     0.000920
      dxy     :     0.002504
  2 C s       :     3.169108  s :     3.169108
      pz      :     0.762532  p :     2.712844
      px      :     0.987174
      py      :     0.963138
      dz2     :     0.021542  d :     0.079465
      dxz     :     0.016183
      dyz     :     0.020954
      dx2y2   :     0.007493
      dxy     :     0.013292
  3 C s       :     3.232189  s :     3.232189
      pz      :     0.972749  p :     2.741384
      px      :     0.912968
      py      :     0.855667
      dz2     :     0.002726  d :     0.034271
      dxz     :     0.005247
      dyz     :     0.005849
      dx2y2   :     0.009816
      dxy     :     0.010633
  4 C s       :     3.171407  s :     3.171407
      pz      :     0.963138  p :     2.790057
      px      :     0.874721
      py      :     0.952199
      dz2     :     0.003672  d :     0.036888
      dxz     :     0.005733
      dyz     :     0.006550
      dx2y2   :     0.010165
      dxy     :     0.010769
  5 C s       :     3.238907  s :     3.238907
      pz      :     0.909905  p :     2.794653
      px      :     0.965748
      py      :     0.919000
      dz2     :     0.005765  d :     0.036275
      dxz     :     0.005131
      dyz     :     0.005476
      dx2y2   :     0.008361
      dxy     :     0.011542
  6 C s       :     2.975273  s :     2.975273
      pz      :     0.941351  p :     2.894757
      px      :     0.942695
      py      :     1.010710
      dz2     :     0.008837  d :     0.034549
      dxz     :     0.006741
      dyz     :     0.004578
      dx2y2   :     0.006428
      dxy     :     0.007965
  7 H s       :     0.754426  s :     0.754426
      pz      :     0.035250  p :     0.067072
      px      :     0.014814
      py      :     0.017009
  8 H s       :     0.936947  s :     0.936947
      pz      :     0.003790  p :     0.020901
      px      :     0.011486
      py      :     0.005625
  9 H s       :     0.920571  s :     0.920571
      pz      :     0.006450  p :     0.023875
      px      :     0.003116
      py      :     0.014309
 10 H s       :     0.939839  s :     0.939839
      pz      :     0.006864  p :     0.023707
      px      :     0.013149
      py      :     0.003694
 11 H s       :     0.939487  s :     0.939487
      pz      :     0.004423  p :     0.023622
      px      :     0.007355
      py      :     0.011844
 12 H s       :     0.919199  s :     0.919199
      pz      :     0.013938  p :     0.022931
      px      :     0.004615
      py      :     0.004378
 13 H s       :     0.903375  s :     0.903375
      pz      :     0.004581  p :     0.023891
      px      :     0.008821
      py      :     0.010489

SPIN
  0 O s       :     0.002655  s :     0.002655
      pz      :     0.008710  p :     0.424673
      px      :     0.209061
      py      :     0.206902
      dz2     :    -0.000070  d :     0.000024
      dxz     :     0.000097
      dyz     :     0.000067
      dx2y2   :     0.000007
      dxy     :    -0.000077
  1 O s       :     0.007592  s :     0.007592
      pz      :     0.001607  p :    -0.185122
      px      :    -0.047895
      py      :    -0.138833
      dz2     :     0.000205  d :     0.001109
      dxz     :     0.000064
      dyz     :     0.000008
      dx2y2   :    -0.000023
      dxy     :     0.000855
  2 C s       :    -0.009663  s :    -0.009663
      pz      :    -0.004448  p :    -0.026563
      px      :    -0.016076
      py      :    -0.006040
      dz2     :    -0.000934  d :     0.002370
      dxz     :     0.002424
      dyz     :     0.001324
      dx2y2   :     0.000040
      dxy     :    -0.000484
  3 C s       :     0.071009  s :     0.071009
      pz      :     0.370080  p :     0.454661
      px      :     0.031627
      py      :     0.052953
      dz2     :    -0.000762  d :    -0.002749
      dxz     :    -0.000849
      dyz     :    -0.000833
      dx2y2   :    -0.000211
      dxy     :    -0.000094
  4 C s       :    -0.051617  s :    -0.051617
      pz      :    -0.157880  p :    -0.244630
      px      :    -0.038718
      py      :    -0.048033
      dz2     :     0.000841  d :     0.006860
      dxz     :     0.001089
      dyz     :     0.003711
      dx2y2   :     0.000410
      dxy     :     0.000809
  5 C s       :     0.081432  s :     0.081432
      pz      :     0.373107  p :     0.544217
      px      :     0.121286
      py      :     0.049824
      dz2     :    -0.000481  d :    -0.002124
      dxz     :    -0.000697
      dyz     :    -0.000647
      dx2y2   :    -0.000112
      dxy     :    -0.000187
  6 C s       :    -0.014887  s :    -0.014887
      pz      :    -0.012487  p :    -0.039798
      px      :    -0.020969
      py      :    -0.006342
      dz2     :     0.002106  d :     0.003168
      dxz     :     0.000396
      dyz     :     0.000284
      dx2y2   :     0.000312
      dxy     :     0.000069
  7 H s       :    -0.012504  s :    -0.012504
      pz      :     0.000103  p :     0.003015
      px      :     0.001442
      py      :     0.001470
  8 H s       :     0.002181  s :     0.002181
      pz      :    -0.000029  p :    -0.000063
      px      :    -0.000036
      py      :     0.000002
  9 H s       :    -0.027585  s :    -0.027585
      pz      :     0.002072  p :     0.002569
      px      :    -0.000024
      py      :     0.000521
 10 H s       :     0.011599  s :     0.011599
      pz      :    -0.000740  p :    -0.001048
      px      :    -0.000210
      py      :    -0.000098
 11 H s       :    -0.033501  s :    -0.033501
      pz      :     0.002233  p :     0.003233
      px      :     0.000632
      py      :     0.000367
 12 H s       :     0.025537  s :     0.025537
      pz      :    -0.000236  p :    -0.000173
      px      :     0.000052
      py      :     0.000011
 13 H s       :     0.004176  s :     0.004176
      pz      :    -0.000059  p :    -0.000050
      px      :    -0.000058
      py      :     0.000068


                     *******************************
                     * LOEWDIN POPULATION ANALYSIS *
                     *******************************

-------------------------------------------
LOEWDIN ATOMIC CHARGES AND SPIN POPULATIONS
-------------------------------------------
   0 O :   -0.158364    0.394170
   1 O :   -0.101748   -0.144240
   2 C :    0.038409   -0.001109
   3 C :    0.017250    0.400408
   4 C :   -0.036253   -0.163148
   5 C :    0.032827    0.494780
   6 C :   -0.053317   -0.008819
   7 H :    0.059283    0.003263
   8 H :    0.020682    0.001443
   9 H :    0.034641   -0.000679
  10 H :    0.036120    0.000704
  11 H :    0.026821   -0.001118
  12 H :    0.039250    0.020369
  13 H :    0.044399    0.003976

----------------------------------------------------
LOEWDIN REDUCED ORBITAL CHARGES AND SPIN POPULATIONS
----------------------------------------------------
CHARGE
  0 O s       :     3.651268  s :     3.651268
      pz      :     1.439455  p :     4.492760
      px      :     1.448635
      py      :     1.604670
      dz2     :     0.010399  d :     0.014336
      dxz     :     0.000514
      dyz     :     0.000691
      dx2y2   :     0.000744
      dxy     :     0.001988
  1 O s       :     3.652895  s :     3.652895
      pz      :     1.491946  p :     4.423995
      px      :     1.427501
      py      :     1.504547
      dz2     :     0.009603  d :     0.024858
      dxz     :     0.003609
      dyz     :     0.005500
      dx2y2   :     0.001473
      dxy     :     0.004673
  2 C s       :     2.854392  s :     2.854392
      pz      :     0.888570  p :     2.928437
      px      :     1.032694
      py      :     1.007174
      dz2     :     0.047123  d :     0.178762
      dxz     :     0.034439
      dyz     :     0.049420
      dx2y2   :     0.015275
      dxy     :     0.032506
  3 C s       :     2.909923  s :     2.909923
      pz      :     0.963960  p :     2.989576
      px      :     1.003836
      py      :     1.021780
      dz2     :     0.006308  d :     0.083251
      dxz     :     0.011717
      dyz     :     0.010924
      dx2y2   :     0.024122
      dxy     :     0.030180
  4 C s       :     2.869964  s :     2.869964
      pz      :     0.978282  p :     3.069543
      px      :     1.036520
      py      :     1.054741
      dz2     :     0.008172  d :     0.096745
      dxz     :     0.012543
      dyz     :     0.016635
      dx2y2   :     0.028003
      dxy     :     0.031393
  5 C s       :     2.895529  s :     2.895529
      pz      :     0.932422  p :     2.983742
      px      :     0.999570
      py      :     1.051750
      dz2     :     0.011870  d :     0.087902
      dxz     :     0.012041
      dyz     :     0.012557
      dx2y2   :     0.023392
      dxy     :     0.028042
  6 C s       :     2.844387  s :     2.844387
      pz      :     1.037188  p :     3.118148
      px      :     1.029030
      py      :     1.051930
      dz2     :     0.023903  d :     0.090782
      dxz     :     0.017498
      dyz     :     0.011752
      dx2y2   :     0.017093
      dxy     :     0.020536
  7 H s       :     0.757846  s :     0.757846
      pz      :     0.098255  p :     0.182871
      px      :     0.039648
      py      :     0.044968
  8 H s       :     0.912388  s :     0.912388
      pz      :     0.013708  p :     0.066929
      px      :     0.034099
      py      :     0.019122
  9 H s       :     0.891177  s :     0.891177
      pz      :     0.020793  p :     0.074182
      px      :     0.011710
      py      :     0.041678
 10 H s       :     0.894906  s :     0.894906
      pz      :     0.019940  p :     0.068974
      px      :     0.036910
      py      :     0.012124
 11 H s       :     0.901525  s :     0.901525
      pz      :     0.014545  p :     0.071655
      px      :     0.023638
      py      :     0.033473
 12 H s       :     0.893395  s :     0.893395
      pz      :     0.039997  p :     0.067355
      px      :     0.013504
      py      :     0.013854
 13 H s       :     0.885153  s :     0.885153
      pz      :     0.012883  p :     0.070447
      px      :     0.025391
      py      :     0.032174

SPIN
  0 O s       :     0.002404  s :     0.002404
      pz      :     0.004289  p :     0.392062
      px      :     0.193626
      py      :     0.194146
      dz2     :    -0.000128  d :    -0.000296
      dxz     :     0.000036
      dyz     :     0.000004
      dx2y2   :    -0.000034
      dxy     :    -0.000175
  1 O s       :     0.015844  s :     0.015844
      pz      :     0.000849  p :    -0.162232
      px      :    -0.036312
      py      :    -0.126769
      dz2     :     0.000233  d :     0.002147
      dxz     :     0.000017
      dyz     :     0.000000
      dx2y2   :     0.000007
      dxy     :     0.001890
  2 C s       :    -0.000034  s :    -0.000034
      pz      :     0.002378  p :    -0.006445
      px      :    -0.005828
      py      :    -0.002994
      dz2     :    -0.001875  d :     0.005370
      dxz     :     0.005325
      dyz     :     0.002642
      dx2y2   :     0.000121
      dxy     :    -0.000843
  3 C s       :     0.013329  s :     0.013329
      pz      :     0.335218  p :     0.392329
      px      :     0.019117
      py      :     0.037994
      dz2     :    -0.000718  d :    -0.005250
      dxz     :    -0.001912
      dyz     :    -0.001167
      dx2y2   :    -0.000833
      dxy     :    -0.000620
  4 C s       :    -0.009439  s :    -0.009439
      pz      :    -0.122345  p :    -0.170756
      px      :    -0.024199
      py      :    -0.024213
      dz2     :     0.001785  d :     0.017047
      dxz     :     0.002580
      dyz     :     0.008652
      dx2y2   :     0.001469
      dxy     :     0.002561
  5 C s       :     0.019576  s :     0.019576
      pz      :     0.336849  p :     0.479765
      px      :     0.108885
      py      :     0.034031
      dz2     :    -0.000827  d :    -0.004561
      dxz     :    -0.000774
      dyz     :    -0.001545
      dx2y2   :    -0.000586
      dxy     :    -0.000828
  6 C s       :    -0.002372  s :    -0.002372
      pz      :    -0.004003  p :    -0.014616
      px      :    -0.008021
      py      :    -0.002592
      dz2     :     0.005296  d :     0.008169
      dxz     :     0.001077
      dyz     :     0.000694
      dx2y2   :     0.000901
      dxy     :     0.000201
  7 H s       :    -0.008190  s :    -0.008190
      pz      :     0.001361  p :     0.011453
      px      :     0.004956
      py      :     0.005136
  8 H s       :     0.001695  s :     0.001695
      pz      :    -0.000015  p :    -0.000252
      px      :    -0.000184
      py      :    -0.000052
  9 H s       :    -0.012352  s :    -0.012352
      pz      :     0.008512  p :     0.011673
      px      :     0.000461
      py      :     0.002700
 10 H s       :     0.005315  s :     0.005315
      pz      :    -0.002940  p :    -0.004611
      px      :    -0.001098
      py      :    -0.000573
 11 H s       :    -0.014797  s :    -0.014797
      pz      :     0.008479  p :     0.013679
      px      :     0.003089
      py      :     0.002112
 12 H s       :     0.021038  s :     0.021038
      pz      :    -0.000460  p :    -0.000669
      px      :    -0.000125
      py      :    -0.000085
 13 H s       :     0.004312  s :     0.004312
      pz      :    -0.000190  p :    -0.000336
      px      :    -0.000159
      py      :     0.000013


                      *****************************
                      * MAYER POPULATION ANALYSIS *
                      *****************************

  NA   - Mulliken gross atomic population
  ZA   - Total nuclear charge
  QA   - Mulliken gross atomic charge
  VA   - Mayer's total valence
  BVA  - Mayer's bonded valence
  FA   - Mayer's free valence

  ATOM       NA         ZA         QA         VA         BVA        FA
  0 O      8.2613     8.0000    -0.2613     2.0209     1.8395     0.1814
  1 O      8.2768     8.0000    -0.2768     1.9730     1.9139     0.0591
  2 C      5.9614     6.0000     0.0386     3.9763     3.9751     0.0012
  3 C      6.0078     6.0000    -0.0078     3.8020     3.6122     0.1898
  4 C      5.9984     6.0000     0.0016     3.8423     3.8031     0.0391
  5 C      6.0698     6.0000    -0.0698     3.9263     3.6686     0.2577
  6 C      5.9046     6.0000     0.0954     3.7970     3.7958     0.0012
  7 H      0.8215     1.0000     0.1785     1.0055     1.0053     0.0002
  8 H      0.9578     1.0000     0.0422     0.9916     0.9916     0.0000
  9 H      0.9444     1.0000     0.0556     0.9917     0.9909     0.0008
 10 H      0.9635     1.0000     0.0365     0.9870     0.9868     0.0001
 11 H      0.9631     1.0000     0.0369     0.9886     0.9875     0.0012
 12 H      0.9421     1.0000     0.0579     0.9784     0.9777     0.0007
 13 H      0.9273     1.0000     0.0727     1.0142     1.0142     0.0000

  Mayer bond orders larger than 0.100000
B(  0-O ,  1-O ) :   0.6484 B(  0-O ,  7-H ) :   0.9790 B(  1-O ,  2-C ) :   0.9481 
B(  1-O ,  3-C ) :   0.2122 B(  2-C ,  3-C ) :   0.9683 B(  2-C ,  6-C ) :   1.0098 
B(  2-C ,  8-H ) :   0.9536 B(  3-C ,  4-C ) :   1.3020 B(  3-C ,  9-H ) :   0.9947 
B(  4-C ,  5-C ) :   1.4657 B(  4-C , 10-H ) :   0.9932 B(  5-C ,  6-C ) :   0.9955 
B(  5-C , 11-H ) :   0.9784 B(  6-C , 12-H ) :   0.9265 B(  6-C , 13-H ) :   0.9249 



------------------
HIRSHFELD ANALYSIS
------------------

Total integrated alpha density =     27.000008172
Total integrated beta density  =     26.000004896

  ATOM     CHARGE      SPIN    
   0 O   -0.238174    0.378082
   1 O   -0.133996   -0.117157
   2 C    0.055919    0.015228
   3 C    0.000802    0.307173
   4 C   -0.038949   -0.069943
   5 C    0.007265    0.386568
   6 C   -0.050093    0.021654
   7 H    0.148674    0.010375
   8 H    0.038871    0.002645
   9 H    0.050182    0.020826
  10 H    0.048173   -0.005711
  11 H    0.039836    0.024641
  12 H    0.033912    0.020464
  13 H    0.037565    0.005158

  TOTAL  -0.000013    1.000003

-------
TIMINGS
-------

Total SCF time: 0 days 0 hours 0 min 8 sec 

Total time                  ....       8.726 sec
Sum of individual times     ....       8.591 sec  ( 98.4%)

Fock matrix formation       ....       7.698 sec  ( 88.2%)
  Split-RI-J                ....       0.726 sec  (  9.4% of F)
  Chain of spheres X        ....       4.915 sec  ( 63.8% of F)
  XC integration            ....       1.972 sec  ( 25.6% of F)
    Basis function eval.    ....       0.508 sec  ( 25.8% of XC)
    Density eval.           ....       0.481 sec  ( 24.4% of XC)
    XC-Functional eval.     ....       0.181 sec  (  9.2% of XC)
    XC-Potential eval.      ....       0.572 sec  ( 29.0% of XC)
Diagonalization             ....       0.145 sec  (  1.7%)
Density matrix formation    ....       0.008 sec  (  0.1%)
Population analysis         ....       0.135 sec  (  1.5%)
Initial guess               ....       0.037 sec  (  0.4%)
Orbital Transformation      ....       0.000 sec  (  0.0%)
Orbital Orthonormalization  ....       0.000 sec  (  0.0%)
DIIS solution               ....       0.101 sec  (  1.2%)
Grid generation             ....       0.467 sec  (  5.4%)

Maximum memory used throughout the entire SCF-calculation: 50.8 MB


-------------------------------------------------------------------------------
                          DFT DISPERSION CORRECTION                            
                                                                               
                              DFTD3 V3.1  Rev 1                                
                          USING Becke-Johnson damping                          
-------------------------------------------------------------------------------
The PBE0 functional is recognized
Active option DFTDOPT                   ...         4   

molecular C6(AA) [au] = 1791.193614 


            DFT-D V3
 parameters
 s6 scaling factor         :     1.0000 
 a1 scaling factor         :     0.4145 
 s8 scaling factor         :     1.2177 
 a2 scaling factor         :     4.8593 
 ad hoc parameters k1-k3   :    16.0000     1.3333    -4.0000 

 Edisp/kcal,au: -6.446784363686  -0.010273603734 
 E6   /kcal   :  -4.094830304 
 E8   /kcal   :  -2.351954060 
 % E8         :  36.482592359 

-------------------------   ----------------
Dispersion correction           -0.010273604
-------------------------   ----------------


-------------------------   --------------------
FINAL SINGLE POINT ENERGY      -344.346531145595
-------------------------   --------------------


                            ***************************************
                            *     ORCA property calculations      *
                            ***************************************

                                    ---------------------
                                    Active property flags
                                    ---------------------
   (+) Dipole Moment


------------------------------------------------------------------------------
                       ORCA ELECTRIC PROPERTIES CALCULATION
------------------------------------------------------------------------------

Dipole Moment Calculation                       ... on
Quadrupole Moment Calculation                   ... off
Polarizability Calculation                      ... off
GBWName                                         ... hy-zjC_hl_ad_1-5_0-1_hess_orca.gbw
Electron density                                ... hy-zjC_hl_ad_1-5_0-1_hess_orca.scfp
The origin for moment calculation is the CENTER OF MASS  = (-0.314745,  0.012220  0.314644)

-------------
DIPOLE MOMENT
-------------
                                X             Y             Z
Electronic contribution:     -0.78714       0.63100       1.65495
Nuclear contribution   :      1.45340      -0.39001      -1.79174
                        -----------------------------------------
Total Dipole Moment    :      0.66625       0.24099      -0.13680
                        -----------------------------------------
Magnitude (a.u.)       :      0.72158
Magnitude (Debye)      :      1.83412



--------------------
Rotational spectrum 
--------------------
 
Rotational constants in cm-1:     0.169415     0.077091     0.067866 
Rotational constants in MHz :  5078.943647  2311.129358  2034.559088 

 Dipole components along the rotational axes: 
x,y,z [a.u.] :    -0.717472    -0.054432    -0.054368 
x,y,z [Debye]:    -1.823669    -0.138355    -0.138193 

 


           ************************************************************
           *        Program running with 8 parallel MPI-processes     *
           *              working on a common directory               *
           ************************************************************

-------------------------------------------------------------------------------
                               ORCA SCF HESSIAN
-------------------------------------------------------------------------------

                   --------- SHARK INITIALIZATION DONE ---------

Hessian of the Kohn-Sham DFT energy:
Kohn-Sham wavefunction type                      ... UKS
Hartree-Fock exchange scaling                    ...    0.250
Number of operators                              ...    2
Number of atoms                                  ...   14
Basis set dimensions                             ...  133
Integral neglect threshold                       ... 1.0e-10
Integral primitive cutoff                        ... 1.0e-11

Setting up DFT Hessian calculations              ... 

HESS GRID
---------

General Integration Accuracy     IntAcc      ... 4.629
Radial Grid Type                 RadialGrid  ... OptM3 with GC (2021)
Angular Grid (max. ang.)         AngularGrid ... 5 (Lebedev-434)
Angular grid pruning method      GridPruning ... 4 (adaptive)
Weight generation scheme         WeightScheme... Becke
Basis function cutoff            BFCut       ... 1.0000e-10
Integration weight cutoff        WCut        ... 1.0000e-14
Angular grids for H and He will be reduced by one unit
Partially contracted basis set               ... off
Rotationally invariant grid construction     ... off

Total number of grid points                  ...   100762
Total number of batches                      ...     1580
Average number of points per batch           ...       63
Average number of grid points per atom       ...     7197

Building densities                               ... done   (      0.0 sec)
Calculating rho(r) on the grid                   ... done   (      0.1 sec)
Building xc-kernel on the grid                   ... done   (      0.0 sec)
                                                     done   (      0.7 sec)

Nuclear repulsion Hessian  (SHARK)               ... done   (      0.0 sec)

----------------------------------------------
Forming right-hand sides of CP-SCF equations     ...
----------------------------------------------
One electron integral derivatives  (SHARK)       ... done   (      0.0 sec)
Transforming the overlap derivative matrices     ... done   (      0.0 sec)
Making the Q(x) pseudodensities                  ... done   (      0.0 sec)
Adding the E*S(x)*S(y) terms to the Hessian      ... done   (      0.0 sec)
Calculating energy weighted overlap derivatives  ... done   (      0.0 sec)
Two electron integral derivatives (SHARK-RI)     ... done   (      1.9 sec)
Exchange-correlation integral derivatives        ... done   (     11.2 sec)
tr(F(y)Q(x)) contribution to the Hessian         ... done   (      0.0 sec)
Response fock operator R(S(x)) (SHARK-RIJCOSX)   ... done   (      2.0 sec)
XC Response fock operator R(S(x))                ... done   (      3.2 sec)
tr(F(y)S(x)) contribution to the Hessian         ... done   (      0.0 sec)
Transforming and finalizing RHSs                 ... done   (      0.0 sec)

----------------------------------------------
Solving the CP-SCF equations (RIJCOSX)           ...
----------------------------------------------
     CP-SCF ITERATION   0:   4.8157e-01 (   1.2 sec   0/ 42 done)
     CP-SCF ITERATION   1:   1.5963e-01 (   1.2 sec   0/ 42 done)
     CP-SCF ITERATION   2:   1.1557e-01 (   1.2 sec   0/ 42 done)
     CP-SCF ITERATION   3:   6.1825e-02 (   1.3 sec   0/ 42 done)
     CP-SCF ITERATION   4:   5.2992e-02 (   1.2 sec   0/ 42 done)
     CP-SCF ITERATION   5:   2.6534e-02 (   1.2 sec  11/ 42 done)
     CP-SCF ITERATION   6:   1.4738e-02 (   1.0 sec  19/ 42 done)
     CP-SCF ITERATION   7:   7.8087e-03 (   0.8 sec  24/ 42 done)
     CP-SCF ITERATION   8:   4.2696e-03 (   0.7 sec  27/ 42 done)
     CP-SCF ITERATION   9:   3.3340e-03 (   0.7 sec  33/ 42 done)
     CP-SCF ITERATION  10:   2.0331e-03 (   0.5 sec  38/ 42 done)
     CP-SCF ITERATION  11:   1.0128e-03 (   0.3 sec  41/ 42 done)
     CP-SCF ITERATION  12:   4.4502e-04 (   0.2 sec  42/ 42 done)
                    *** THE CP-SCF HAS CONVERGED ***

                                                 ... done   (     11.6 sec)
Forming perturbed density Hessian contributions  ... done   (      0.0 sec)
2nd integral derivative contribs (SHARK-RI)      ... done   (      7.2 sec)
Exchange-correlation Hessian                     ... done   (      7.3 sec)
Dispersion correction in the Hessian             ... done   (      0.4 sec)
Dipole derivatives                               ... (center of mass: -0.314745,  0.012220  0.314644)done   (      0.1 sec)

Total SCF Hessian time: 0 days 0 hours 0 min 46 sec 

Writing the Hessian file to the disk             ... done


Maximum memory used throughout the entire SCFHESS-calculation: 114.1 MB

-----------------------
VIBRATIONAL FREQUENCIES
-----------------------

Scaling factor for frequencies =  1.000000000  (already applied!)

   0:         0.00 cm**-1
   1:         0.00 cm**-1
   2:         0.00 cm**-1
   3:         0.00 cm**-1
   4:         0.00 cm**-1
   5:         0.00 cm**-1
   6:      -654.04 cm**-1 ***imaginary mode***
   7:        78.64 cm**-1
   8:       165.42 cm**-1
   9:       232.56 cm**-1
  10:       316.23 cm**-1
  11:       338.98 cm**-1
  12:       464.72 cm**-1
  13:       483.54 cm**-1
  14:       662.32 cm**-1
  15:       739.07 cm**-1
  16:       779.79 cm**-1
  17:       823.98 cm**-1
  18:       927.05 cm**-1
  19:       935.74 cm**-1
  20:       941.06 cm**-1
  21:       976.19 cm**-1
  22:       987.95 cm**-1
  23:      1007.79 cm**-1
  24:      1071.17 cm**-1
  25:      1110.26 cm**-1
  26:      1113.82 cm**-1
  27:      1179.78 cm**-1
  28:      1261.42 cm**-1
  29:      1292.14 cm**-1
  30:      1322.05 cm**-1
  31:      1360.88 cm**-1
  32:      1414.49 cm**-1
  33:      1438.88 cm**-1
  34:      1508.40 cm**-1
  35:      3053.64 cm**-1
  36:      3128.73 cm**-1
  37:      3162.24 cm**-1
  38:      3217.41 cm**-1
  39:      3247.05 cm**-1
  40:      3274.44 cm**-1
  41:      3845.79 cm**-1


------------
NORMAL MODES
------------

These modes are the Cartesian displacements weighted by the diagonal matrix
M(i,i)=1/sqrt(m[i]) where m[i] is the mass of the displaced atom
Thus, these vectors are normalized but *not* orthogonal

                  0          1          2          3          4          5    
      0       0.000000   0.000000   0.000000   0.000000   0.000000   0.000000
      1       0.000000   0.000000   0.000000   0.000000   0.000000   0.000000
      2       0.000000   0.000000   0.000000   0.000000   0.000000   0.000000
      3       0.000000   0.000000   0.000000   0.000000   0.000000   0.000000
      4       0.000000   0.000000   0.000000   0.000000   0.000000   0.000000
      5       0.000000   0.000000   0.000000   0.000000   0.000000   0.000000
      6       0.000000   0.000000   0.000000   0.000000   0.000000   0.000000
      7       0.000000   0.000000   0.000000   0.000000   0.000000   0.000000
      8       0.000000   0.000000   0.000000   0.000000   0.000000   0.000000
      9       0.000000   0.000000   0.000000   0.000000   0.000000   0.000000
     10       0.000000   0.000000   0.000000   0.000000   0.000000   0.000000
     11       0.000000   0.000000   0.000000   0.000000   0.000000   0.000000
     12       0.000000   0.000000   0.000000   0.000000   0.000000   0.000000
     13       0.000000   0.000000   0.000000   0.000000   0.000000   0.000000
     14       0.000000   0.000000   0.000000   0.000000   0.000000   0.000000
     15       0.000000   0.000000   0.000000   0.000000   0.000000   0.000000
     16       0.000000   0.000000   0.000000   0.000000   0.000000   0.000000
     17       0.000000   0.000000   0.000000   0.000000   0.000000   0.000000
     18       0.000000   0.000000   0.000000   0.000000   0.000000   0.000000
     19       0.000000   0.000000   0.000000   0.000000   0.000000   0.000000
     20       0.000000   0.000000   0.000000   0.000000   0.000000   0.000000
     21       0.000000   0.000000   0.000000   0.000000   0.000000   0.000000
     22       0.000000   0.000000   0.000000   0.000000   0.000000   0.000000
     23       0.000000   0.000000   0.000000   0.000000   0.000000   0.000000
     24       0.000000   0.000000   0.000000   0.000000   0.000000   0.000000
     25       0.000000   0.000000   0.000000   0.000000   0.000000   0.000000
     26       0.000000   0.000000   0.000000   0.000000   0.000000   0.000000
     27       0.000000   0.000000   0.000000   0.000000   0.000000   0.000000
     28       0.000000   0.000000   0.000000   0.000000   0.000000   0.000000
     29       0.000000   0.000000   0.000000   0.000000   0.000000   0.000000
     30       0.000000   0.000000   0.000000   0.000000   0.000000   0.000000
     31       0.000000   0.000000   0.000000   0.000000   0.000000   0.000000
     32       0.000000   0.000000   0.000000   0.000000   0.000000   0.000000
     33       0.000000   0.000000   0.000000   0.000000   0.000000   0.000000
     34       0.000000   0.000000   0.000000   0.000000   0.000000   0.000000
     35       0.000000   0.000000   0.000000   0.000000   0.000000   0.000000
     36       0.000000   0.000000   0.000000   0.000000   0.000000   0.000000
     37       0.000000   0.000000   0.000000   0.000000   0.000000   0.000000
     38       0.000000   0.000000   0.000000   0.000000   0.000000   0.000000
     39       0.000000   0.000000   0.000000   0.000000   0.000000   0.000000
     40       0.000000   0.000000   0.000000   0.000000   0.000000   0.000000
[...]
      7      -0.024872   0.030783  -0.015936   0.132975   0.096758   0.004868
      8      -0.025424  -0.061231   0.072407  -0.200375  -0.025630   0.049083
      9       0.042947  -0.008972   0.003691  -0.024931   0.029135   0.088736
     10      -0.057086   0.043373   0.105948   0.047793  -0.057841   0.009191
     11       0.013496   0.009679   0.026589   0.019954   0.009105   0.023248
     12      -0.048234   0.087584   0.056047   0.052945  -0.009414  -0.001479
     13       0.066290   0.018844   0.029006  -0.012499  -0.032757  -0.038252
     14       0.003406   0.043106   0.009152   0.007642  -0.010589  -0.009516
     15      -0.069388   0.039964   0.019515   0.025910  -0.044590  -0.034080
     16       0.012208  -0.027830  -0.124266  -0.039832   0.010584  -0.040434
     17      -0.036729  -0.053459   0.006819   0.050637  -0.009962  -0.033490
     18       0.010179  -0.043120   0.004971  -0.021136  -0.002173  -0.074280
     19      -0.012316  -0.021615  -0.014776  -0.041523  -0.017041   0.083614
     20       0.039998  -0.004463  -0.012649  -0.016447   0.017704  -0.006860
     21       0.013162   0.100493  -0.114535   0.196826  -0.066128   0.015734
     22       0.006286   0.079210  -0.087036   0.134923  -0.055799   0.008141
     23      -0.000153  -0.002310   0.003877  -0.008890   0.005777  -0.001606
     24       0.077276  -0.280400   0.044910  -0.058648  -0.427856   0.079797
     25      -0.054023  -0.380554   0.219841  -0.045396  -0.415295  -0.204091
     26      -0.142140   0.043475   0.201013  -0.388722   0.575201  -0.516049
     27       0.503898  -0.151876  -0.483864  -0.051443  -0.221804  -0.339052
     28      -0.070177   0.053287   0.134064   0.044042  -0.054970   0.026641
     29       0.104643  -0.022425  -0.096739   0.048622  -0.071860  -0.087716
     30      -0.228586   0.055093  -0.020953   0.106853  -0.072450  -0.110089
     31       0.595460   0.150834   0.197902  -0.060051   0.208836   0.319734
     32       0.139248   0.076988   0.123719  -0.065949   0.003346   0.061137
     33      -0.339905  -0.241977  -0.334952  -0.022542   0.140772   0.304313
     34      -0.171249  -0.227727  -0.387444  -0.084417   0.145352   0.193704
     35      -0.240202  -0.101781  -0.339400  -0.100345   0.110550   0.225790
     36       0.062553   0.447724  -0.159998  -0.495037  -0.092526   0.231848
     37       0.057455  -0.275271   0.027963   0.317771   0.170096  -0.267492
     38       0.058403   0.036023  -0.035880  -0.050214   0.030227  -0.009303
     39       0.149239  -0.426640   0.270164   0.382875   0.210258   0.270234
     40      -0.125920   0.250325  -0.221341  -0.369958  -0.175527  -0.183784
     41      -0.016237  -0.168310   0.014791  -0.091923   0.019791   0.001248
                 30         31         32         33         34         35    
      0      -0.001326  -0.010308  -0.004278  -0.003225  -0.000813   0.000177
      1      -0.001918  -0.007180  -0.003848  -0.001822  -0.000727   0.000070
      2      -0.002974  -0.007520   0.001132   0.000424  -0.001497  -0.000099
      3      -0.022432   0.007354   0.007679   0.006785   0.003115  -0.000080
      4       0.010246  -0.000006   0.009474   0.003339  -0.004631   0.000150
      5       0.034786   0.071985  -0.015785  -0.002471   0.004449  -0.000429
      6       0.083894  -0.146743   0.012460  -0.015519  -0.026953  -0.004350
      7      -0.155912  -0.113789   0.039861   0.045332   0.021458   0.000282
      8      -0.145692  -0.188967   0.027684   0.023412   0.023531  -0.002247
      9      -0.013721   0.230608   0.060513   0.048196   0.181199  -0.000335
     10       0.048575  -0.007703  -0.099034  -0.067589  -0.033944   0.000251
     11       0.016564   0.058818  -0.004054  -0.000410   0.041913  -0.000191
     12      -0.053055  -0.075810  -0.076498  -0.051052  -0.190739   0.000541
     13      -0.007617   0.071743   0.173496   0.139127  -0.139181  -0.000804
     14      -0.025081  -0.007234   0.021217   0.020903  -0.107437  -0.000240
     15       0.120309  -0.072577   0.023494   0.026311   0.190310   0.000468
     16      -0.014708  -0.052892  -0.053962  -0.064077   0.225152  -0.001128
     17       0.048115  -0.072962  -0.001552  -0.008535   0.163253   0.000175
     18      -0.194804   0.123157   0.003299  -0.048789  -0.034157   0.002074
     19       0.165651   0.014451   0.051903  -0.033082  -0.045644   0.009944
     20       0.008923   0.073782   0.051271  -0.072597  -0.054998   0.073435
     21       0.021097   0.070800  -0.011027  -0.001301   0.007004   0.000070
     22       0.012950   0.062986  -0.013956   0.001734   0.004032  -0.000062
     23      -0.002510  -0.005009   0.000879   0.000773  -0.000699   0.000295
     24       0.026509  -0.080503  -0.076973  -0.059919  -0.048793   0.057601
     25       0.193945   0.461656  -0.187938  -0.136026  -0.138506  -0.030290
     26       0.506790   0.404596  -0.060266  -0.133787  -0.163924   0.026219
     27       0.233907  -0.416647  -0.032195  -0.048159  -0.415241   0.000216
     28       0.042282   0.012298  -0.115383  -0.077157  -0.023438   0.002040
     29       0.077832  -0.105981  -0.036326  -0.027432  -0.128129   0.000856
     30      -0.003239  -0.102491   0.085780   0.076247  -0.283437  -0.004312
     31      -0.177948   0.097580  -0.436925  -0.330696   0.045010  -0.001035
     32      -0.063881   0.019292  -0.066140  -0.041749  -0.118354  -0.001071
     33       0.007891   0.169195  -0.059163  -0.022616  -0.490539  -0.008822
     34      -0.098086   0.126253  -0.118890  -0.115371  -0.219503   0.016535
     35       0.012621   0.140562  -0.060298  -0.051093  -0.329178   0.002272
     36       0.361888  -0.075278  -0.304579   0.411288  -0.051618   0.166039
     37      -0.241052   0.117747  -0.462317   0.425426   0.025053   0.154944
     38       0.053609   0.058378  -0.103274   0.091404  -0.049090  -0.914658
     39       0.412714  -0.216883   0.066937   0.074743  -0.179748  -0.193234
     40      -0.293094   0.286382  -0.091605  -0.026877   0.060645  -0.247449
     41       0.068457   0.092214  -0.568819   0.637959  -0.047008   0.049259
                 36         37         38         39         40         41    
      0      -0.000066   0.000044  -0.000272  -0.000119   0.000204  -0.002565
      1       0.000173  -0.000093  -0.000203  -0.000106   0.000132   0.007914
      2      -0.000226  -0.000263  -0.000050  -0.000040   0.000054  -0.062706
      3      -0.000055   0.000058   0.000268   0.000316  -0.000117  -0.000116
      4      -0.000100   0.000145   0.000412   0.000001   0.000146  -0.000188
      5       0.000639   0.000132  -0.000066   0.000068  -0.000208   0.000327
      6       0.071894   0.003825  -0.000890  -0.000655   0.004513  -0.000469
      7      -0.039901  -0.001526   0.000892  -0.000199   0.000377  -0.000148
      8       0.027603   0.000905   0.000140  -0.000529   0.001326  -0.000288
      9      -0.002297  -0.000367  -0.000297   0.001416   0.007297  -0.000116
     10       0.001799   0.000006   0.002411   0.023471  -0.080598  -0.000207
     11       0.000291  -0.000189   0.001103   0.009585  -0.028069   0.000188
     12      -0.000469  -0.000458  -0.021902  -0.071095  -0.028293   0.000050
     13      -0.000251  -0.000070  -0.002216  -0.017442  -0.002812   0.000044
     14      -0.000038  -0.000532  -0.010300  -0.035165  -0.012650   0.000061
     15      -0.000591   0.001597   0.046051  -0.012712  -0.002467  -0.000106
     16       0.000102  -0.003848  -0.068634   0.026042   0.007359   0.000042
     17      -0.000055  -0.000588   0.002386   0.001169   0.000812  -0.000077
     18      -0.002776   0.052899  -0.004770   0.001469   0.000679  -0.000052
     19      -0.000528   0.066388  -0.003590   0.000721   0.001008  -0.000083
     20       0.007364  -0.031188  -0.000891   0.001088   0.000443   0.000031
     21       0.000018  -0.000459   0.000251   0.000146  -0.000287   0.048513
     22       0.000036  -0.000579  -0.000003   0.000146  -0.000256  -0.118897
     23       0.002752   0.001004   0.000201   0.000398  -0.000174   0.989696
     24      -0.811068  -0.037333   0.005008   0.006983  -0.025562   0.002035
     25       0.460197   0.020990  -0.003280  -0.003110   0.010357  -0.001235
     26      -0.339031  -0.013710   0.001047   0.002625  -0.008421   0.000963
     27       0.005058   0.000283   0.000915   0.015704  -0.056824   0.000049
     28      -0.029697  -0.006718  -0.029480  -0.294649   0.883360   0.000326
     29      -0.009994  -0.002706  -0.010740  -0.111538   0.332826   0.000034
     30      -0.001443   0.004609   0.269688   0.790987   0.268459  -0.000239
     31       0.000474   0.000585   0.051821   0.164373   0.052266   0.000038
     32       0.000176   0.001746   0.132636   0.390793   0.131957  -0.000229
     33      -0.003379  -0.030251  -0.528982   0.162450   0.034991   0.000086
     34       0.004424   0.045792   0.784197  -0.245633  -0.054409  -0.000075
     35       0.000359   0.000589  -0.026811   0.006667   0.001323   0.000260
     36       0.014970  -0.046996   0.001507   0.000699  -0.000029   0.000287
     37       0.008749  -0.041837  -0.000792   0.001038  -0.000576  -0.000008
     38      -0.077559   0.290902  -0.000845  -0.005484  -0.000609   0.000331
     39       0.014171  -0.576582   0.034911  -0.008041  -0.004428   0.000085
     40       0.016744  -0.745318   0.041879  -0.008854  -0.005461   0.001431
     41      -0.002274   0.100714  -0.003527   0.000318  -0.000018   0.000037


-----------
IR SPECTRUM
-----------

 Mode   freq       eps      Int      T**2         TX        TY        TZ
       cm**-1   L/(mol*cm) km/mol    a.u.
----------------------------------------------------------------------------
  7:     78.64   0.019579   98.94  0.077695  (-0.173617  0.215152  0.035519)
  8:    165.42   0.000745    3.76  0.001405  (-0.022854  0.028964  0.006646)
  9:    232.56   0.000551    2.79  0.000740  (-0.013105 -0.023544  0.003713)
 10:    316.23   0.000023    0.12  0.000023  (-0.004725 -0.000302 -0.000775)
 11:    338.98   0.000653    3.30  0.000602  ( 0.023515  0.000424 -0.006956)
 12:    464.72   0.001128    5.70  0.000757  (-0.002029 -0.017095 -0.021474)
 13:    483.54   0.000023    0.12  0.000015  (-0.003709  0.001038  0.000156)
 14:    662.32   0.011040   55.79  0.005201  (-0.022711 -0.041198  0.054666)
 15:    739.07   0.003682   18.60  0.001554  ( 0.014280  0.020979 -0.030174)
 16:    779.79   0.000670    3.39  0.000268  (-0.007060 -0.014773 -0.000071)
 17:    823.98   0.000545    2.76  0.000207  ( 0.007023 -0.011376 -0.005269)
 18:    927.05   0.004144   20.94  0.001395  ( 0.029225  0.023136  0.002378)
 19:    935.74   0.001250    6.32  0.000417  ( 0.018731  0.002242  0.007806)
 20:    941.06   0.000643    3.25  0.000213  ( 0.007684  0.010748  0.006224)
 21:    976.19   0.003105   15.69  0.000993  (-0.012688 -0.024315 -0.015508)
 22:    987.95   0.007194   36.35  0.002272  ( 0.040930  0.023406 -0.007011)
 23:   1007.79   0.002640   13.34  0.000817  (-0.023025 -0.003098  0.016663)
 24:   1071.17   0.000628    3.17  0.000183  ( 0.011466 -0.001235 -0.007072)
 25:   1110.26   0.000974    4.92  0.000274  (-0.008116 -0.006217 -0.013005)
 26:   1113.82   0.002443   12.35  0.000684  (-0.019262 -0.006120  0.016612)
 27:   1179.78   0.003175   16.05  0.000840  (-0.005282  0.009796 -0.026759)
 28:   1261.42   0.000122    0.62  0.000030  ( 0.002495 -0.000221  0.004887)
 29:   1292.14   0.000110    0.56  0.000027  (-0.001530 -0.004570 -0.001853)
 30:   1322.05   0.002796   14.13  0.000660  ( 0.015640 -0.017185 -0.010962)
 31:   1360.88   0.001481    7.49  0.000340  (-0.012715  0.009384 -0.009487)
 32:   1414.49   0.004301   21.74  0.000949  (-0.000775 -0.029865 -0.007511)
 33:   1438.88   0.001543    7.80  0.000335  ( 0.010623 -0.006698  0.013305)
 34:   1508.40   0.001049    5.30  0.000217  (-0.014069  0.003623  0.002422)
 35:   3053.64   0.003056   15.44  0.000312  (-0.001685  0.002520  0.017410)
 36:   3128.73   0.005102   25.79  0.000509  ( 0.013965 -0.013794  0.011119)
 37:   3162.24   0.000018    0.09  0.000002  ( 0.001156 -0.000279 -0.000636)
 38:   3217.41   0.000700    3.54  0.000068  ( 0.003276 -0.007185  0.002354)
 39:   3247.05   0.000886    4.48  0.000085  (-0.009056  0.001215 -0.001290)
 40:   3274.44   0.000024    0.12  0.000002  ( 0.001129 -0.001028 -0.000008)
 41:   3845.79   0.016914   85.48  0.001373  (-0.021090 -0.012488  0.027781)

* The epsilon (eps) is given for a Dirac delta lineshape.
** The dipole moment derivative (T) already includes vibrational overlap.

The first frequency considered to be a vibration is 7
The total number of vibrations considered is 35


--------------------------
THERMOCHEMISTRY AT 298.15K
--------------------------

Temperature         ... 298.15 K
Pressure            ... 1.00 atm
Total Mass          ... 99.11 AMU

Throughout the following assumptions are being made:
  (1) The electronic state is orbitally nondegenerate
      but the spin degeneracy is treated
  (2) There are no thermally accessible electronically excited states
  (3) Hindered rotations indicated by low frequency modes are not
      treated as such but are treated as vibrations and this may
      cause some error
  (4) All equations used are the standard statistical mechanics
      equations for an ideal gas
  (5) All vibrations are strictly harmonic

freq.      78.64  E(vib)   ...       0.49 
freq.     165.42  E(vib)   ...       0.39 
freq.     232.56  E(vib)   ...       0.32 
freq.     316.23  E(vib)   ...       0.25 
freq.     338.98  E(vib)   ...       0.23 
freq.     464.72  E(vib)   ...       0.16 
freq.     483.54  E(vib)   ...       0.15 
freq.     662.32  E(vib)   ...       0.08 
freq.     739.07  E(vib)   ...       0.06 
freq.     779.79  E(vib)   ...       0.05 
freq.     823.98  E(vib)   ...       0.05 
freq.     927.05  E(vib)   ...       0.03 
freq.     935.74  E(vib)   ...       0.03 
freq.     941.06  E(vib)   ...       0.03 
freq.     976.19  E(vib)   ...       0.03 
freq.     987.95  E(vib)   ...       0.02 
freq.    1007.79  E(vib)   ...       0.02 
freq.    1071.17  E(vib)   ...       0.02 
freq.    1110.26  E(vib)   ...       0.02 
freq.    1113.82  E(vib)   ...       0.01 
freq.    1179.78  E(vib)   ...       0.01 
freq.    1261.42  E(vib)   ...       0.01 
freq.    1292.14  E(vib)   ...       0.01 
freq.    1322.05  E(vib)   ...       0.01 
freq.    1360.88  E(vib)   ...       0.01 
freq.    1414.49  E(vib)   ...       0.00 
freq.    1438.88  E(vib)   ...       0.00 
freq.    1508.40  E(vib)   ...       0.00 
freq.    3053.64  E(vib)   ...       0.00 
freq.    3128.73  E(vib)   ...       0.00 
freq.    3162.24  E(vib)   ...       0.00 
freq.    3217.41  E(vib)   ...       0.00 
freq.    3247.05  E(vib)   ...       0.00 
freq.    3274.44  E(vib)   ...       0.00 
freq.    3845.79  E(vib)   ...       0.00 

------------
INNER ENERGY
------------

The inner energy is: U= E(el) + E(ZPE) + E(vib) + E(rot) + E(trans)
    E(el)   - is the total energy from the electronic structure calculation
              = E(kin-el) + E(nuc-el) + E(el-el) + E(nuc-nuc)
    E(ZPE)  - the the zero temperature vibrational energy from the frequency calculation
    E(vib)  - the the finite temperature correction to E(ZPE) due to population
              of excited vibrational states
    E(rot)  - is the rotational thermal energy
    E(trans)- is the translational thermal energy

Summary of contributions to the inner energy U:
Electronic energy                ...   -344.34653115 Eh
Zero point energy                ...      0.10904137 Eh      68.42 kcal/mol
Thermal vibrational correction   ...      0.00396198 Eh       2.49 kcal/mol
Thermal rotational correction    ...      0.00141627 Eh       0.89 kcal/mol
Thermal translational correction ...      0.00141627 Eh       0.89 kcal/mol
-----------------------------------------------------------------------
Total thermal energy                   -344.23069525 Eh


Summary of corrections to the electronic energy:
(perhaps to be used in another calculation)
Total thermal correction                  0.00679453 Eh       4.26 kcal/mol
Non-thermal (ZPE) correction              0.10904137 Eh      68.42 kcal/mol
-----------------------------------------------------------------------
Total correction                          0.11583590 Eh      72.69 kcal/mol


--------
ENTHALPY
--------

The enthalpy is H = U + kB*T
                kB is Boltzmann's constant
Total free energy                 ...   -344.23069525 Eh 
Thermal Enthalpy correction       ...      0.00094421 Eh       0.59 kcal/mol
-----------------------------------------------------------------------
Total Enthalpy                    ...   -344.22975104 Eh


Note: Only C1 symmetry has been detected, increase convergence thresholds 
      if your molecule has a higher symmetry. Symmetry factor of 1.0 is   
      used for the rotational entropy correction. 
 

Note: Rotational entropy computed according to Herzberg 
Infrared and Raman Spectra, Chapter V,1, Van Nostrand Reinhold, 1945 
Point Group:  C1, Symmetry Number:   1  
Rotational constants in cm-1:     0.169415     0.077091     0.067866 

Vibrational entropy computed according to the QRRHO of S. Grimme
Chem.Eur.J. 2012 18 9955


-------
ENTROPY
-------

The entropy contributions are T*S = T*(S(el)+S(vib)+S(rot)+S(trans))
     S(el)   - electronic entropy
     S(vib)  - vibrational entropy
     S(rot)  - rotational entropy
     S(trans)- translational entropy
The entropies will be listed as multiplied by the temperature to get
units of energy

Electronic entropy                ...      0.00065446 Eh      0.41 kcal/mol
Vibrational entropy               ...      0.00652852 Eh      4.10 kcal/mol
Rotational entropy                ...      0.01282885 Eh      8.05 kcal/mol
Translational entropy             ...      0.01885857 Eh     11.83 kcal/mol
-----------------------------------------------------------------------
Final entropy term                ...      0.03887039 Eh     24.39 kcal/mol

In case the symmetry of your molecule has not been determined correctly
or in case you have a reason to use a different symmetry number we print 
out the resulting rotational entropy values for sn=1,12 :
 --------------------------------------------------------
|  sn= 1 | S(rot)=       0.01282885 Eh      8.05 kcal/mol|
|  sn= 2 | S(rot)=       0.01217439 Eh      7.64 kcal/mol|
|  sn= 3 | S(rot)=       0.01179156 Eh      7.40 kcal/mol|
|  sn= 4 | S(rot)=       0.01151994 Eh      7.23 kcal/mol|
|  sn= 5 | S(rot)=       0.01130925 Eh      7.10 kcal/mol|
|  sn= 6 | S(rot)=       0.01113710 Eh      6.99 kcal/mol|
|  sn= 7 | S(rot)=       0.01099156 Eh      6.90 kcal/mol|
|  sn= 8 | S(rot)=       0.01086548 Eh      6.82 kcal/mol|
|  sn= 9 | S(rot)=       0.01075427 Eh      6.75 kcal/mol|
|  sn=10 | S(rot)=       0.01065479 Eh      6.69 kcal/mol|
|  sn=11 | S(rot)=       0.01056480 Eh      6.63 kcal/mol|
|  sn=12 | S(rot)=       0.01048265 Eh      6.58 kcal/mol|
 --------------------------------------------------------


-------------------
GIBBS FREE ENERGY
-------------------

The Gibbs free energy is G = H - T*S

Total enthalpy                    ...   -344.22975104 Eh 
Total entropy correction          ...     -0.03887039 Eh    -24.39 kcal/mol
-----------------------------------------------------------------------
Final Gibbs free energy         ...   -344.26862143 Eh

For completeness - the Gibbs free energy minus the electronic energy
G-E(el)                           ...      0.07790972 Eh     48.89 kcal/mol


Timings for individual modules:

Sum of individual times         ...       55.759 sec (=   0.929 min)
GTO integral calculation        ...        0.402 sec (=   0.007 min)   0.7 %
SCF iterations                  ...        9.012 sec (=   0.150 min)  16.2 %
Analytical frequency calculation...       46.345 sec (=   0.772 min)  83.1 %
                             ****ORCA TERMINATED NORMALLY****
TOTAL RUN TIME: 0 days 0 hours 0 minutes 56 seconds 202 msec
