
                                 *****************
                                 * O   R   C   A *
                                 *****************

                                            #,                                       
                                            ###                                      
                                            ####                                     
                                            #####                                    
                                            ######                                   
                                           ########,                                 
                                     ,,################,,,,,                         
                               ,,#################################,,                 
                          ,,##########################################,,             
                       ,#########################################, ''#####,          
                    ,#############################################,,   '####,        
                  ,##################################################,,,,####,       
                ,###########''''           ''''###############################       
              ,#####''   ,,,,##########,,,,          '''####'''          '####       
            ,##' ,,,,###########################,,,                        '##       
           ' ,,###''''                  '''############,,,                           
         ,,##''                                '''############,,,,        ,,,,,,###''
      ,#''                                            '''#######################'''  
     '                                                          ''''####''''         
             ,#######,   #######,   ,#######,      ##                                
            ,#'     '#,  ##    ##  ,#'     '#,    #''#        ######   ,####,        
            ##       ##  ##   ,#'  ##            #'  '#       #        #'  '#        
            ##       ##  #######   ##           ,######,      #####,   #    #        
            '#,     ,#'  ##    ##  '#,     ,#' ,#      #,         ##   #,  ,#        
             '#######'   ##     ##  '#######'  #'      '#     #####' # '####'        



                  #######################################################
                  #                        -***-                        #
                  #          Department of theory and spectroscopy      #
                  #    Directorship and core code : Frank Neese         #
                  #        Max Planck Institute fuer Kohlenforschung    #
                  #                Kaiser Wilhelm Platz 1               #
                  #                 D-45470 Muelheim/Ruhr               #
                  #                      Germany                        #
                  #                                                     #
                  #                  All rights reserved                #
                  #                        -***-                        #
                  #######################################################


                         Program Version 5.0.4 -  RELEASE  -


 With contributions from (in alphabetic order):
   Daniel Aravena         : Magnetic Suceptibility
   Michael Atanasov       : Ab Initio Ligand Field Theory (pilot matlab implementation)
   Alexander A. Auer      : GIAO ZORA, VPT2 properties, NMR spectrum
   Ute Becker             : Parallelization
   Giovanni Bistoni       : ED, misc. LED, open-shell LED, HFLD
   Martin Brehm           : Molecular dynamics
   Dmytro Bykov           : SCF Hessian
   Vijay G. Chilkuri      : MRCI spin determinant printing, contributions to CSF-ICE
   Dipayan Datta          : RHF DLPNO-CCSD density
   Achintya Kumar Dutta   : EOM-CC, STEOM-CC
   Dmitry Ganyushin       : Spin-Orbit,Spin-Spin,Magnetic field MRCI
   Miquel Garcia          : C-PCM and meta-GGA Hessian, CC/C-PCM, Gaussian charge scheme
   Yang Guo               : DLPNO-NEVPT2, F12-NEVPT2, CIM, IAO-localization
   Andreas Hansen         : Spin unrestricted coupled pair/coupled cluster methods
   Benjamin Helmich-Paris : MC-RPA, TRAH-SCF, COSX integrals
   Lee Huntington         : MR-EOM, pCC
   Robert Izsak           : Overlap fitted RIJCOSX, COSX-SCS-MP3, EOM
   Marcus Kettner         : VPT2
   Christian Kollmar      : KDIIS, OOCD, Brueckner-CCSD(T), CCSD density, CASPT2, CASPT2-K
   Simone Kossmann        : Meta GGA functionals, TD-DFT gradient, OOMP2, MP2 Hessian
   Martin Krupicka        : Initial AUTO-CI
   Lucas Lang             : DCDCAS
   Marvin Lechner         : AUTO-CI (C++ implementation), FIC-MRCC
   Dagmar Lenk            : GEPOL surface, SMD
   Dimitrios Liakos       : Extrapolation schemes; Compound Job, initial MDCI parallelization
   Dimitrios Manganas     : Further ROCIS development; embedding schemes
   Dimitrios Pantazis     : SARC Basis sets
   Anastasios Papadopoulos: AUTO-CI, single reference methods and gradients
   Taras Petrenko         : DFT Hessian,TD-DFT gradient, ASA, ECA, R-Raman, ABS, FL, XAS/XES, NRVS
   Peter Pinski           : DLPNO-MP2, DLPNO-MP2 Gradient
   Christoph Reimann      : Effective Core Potentials
   Marius Retegan         : Local ZFS, SOC
   Christoph Riplinger    : Optimizer, TS searches, QM/MM, DLPNO-CCSD(T), (RO)-DLPNO pert. Triples
   Tobias Risthaus        : Range-separated hybrids, TD-DFT gradient, RPA, STAB
   Michael Roemelt        : Original ROCIS implementation
   Masaaki Saitow         : Open-shell DLPNO-CCSD energy and density
   Barbara Sandhoefer     : DKH picture change effects
   Avijit Sen             : IP-ROCIS
   Kantharuban Sivalingam : CASSCF convergence, NEVPT2, FIC-MRCI
   Bernardo de Souza      : ESD, SOC TD-DFT
   Georgi Stoychev        : AutoAux, RI-MP2 NMR, DLPNO-MP2 response
   Willem Van den Heuvel  : Paramagnetic NMR
   Boris Wezisla          : Elementary symmetry handling
   Frank Wennmohs         : Technical directorship


 We gratefully acknowledge several colleagues who have allowed us to
 interface, adapt or use parts of their codes:
   Stefan Grimme, W. Hujo, H. Kruse, P. Pracht,  : VdW corrections, initial TS optimization,
                  C. Bannwarth, S. Ehlert          DFT functionals, gCP, sTDA/sTD-DF
   Ed Valeev, F. Pavosevic, A. Kumar             : LibInt (2-el integral package), F12 methods
   Garnet Chan, S. Sharma, J. Yang, R. Olivares  : DMRG
   Ulf Ekstrom                                   : XCFun DFT Library
   Mihaly Kallay                                 : mrcc  (arbitrary order and MRCC methods)
   Jiri Pittner, Ondrej Demel                    : Mk-CCSD
   Frank Weinhold                                : gennbo (NPA and NBO analysis)
   Christopher J. Cramer and Donald G. Truhlar   : smd solvation model
   Lars Goerigk                                  : TD-DFT with DH, B97 family of functionals
   V. Asgeirsson, H. Jonsson                     : NEB implementation
   FAccTs GmbH                                   : IRC, NEB, NEB-TS, DLPNO-Multilevel, CI-OPT
                                                   MM, QMMM, 2- and 3-layer-ONIOM, Crystal-QMMM,
                                                   LR-CPCM, SF, NACMEs, symmetry and pop. for TD-DFT,
                                                   nearIR, NL-DFT gradient (VV10), updates on ESD,
                                                   ML-optimized integration grids
   S Lehtola, MJT Oliveira, MAL Marques          : LibXC Library
   Liviu Ungur et al                             : ANISO software


 Your calculation uses the libint2 library for the computation of 2-el integrals
 For citations please refer to: http://libint.valeyev.net

 Your ORCA version has been built with support for libXC version: 5.1.0
 For citations please refer to: https://tddft.org/programs/libxc/

 This ORCA versions uses:
   CBLAS   interface :  Fast vector & matrix operations
   LAPACKE interface :  Fast linear algebra routines
   SCALAPACK package :  Parallel linear algebra routines
   Shared memory     :  Shared parallel matrices
   BLAS/LAPACK       :  OpenBLAS 0.3.15  USE64BITINT DYNAMIC_ARCH NO_AFFINITY SkylakeX SINGLE_THREADED
        Core in use  :  SkylakeX
   Copyright (c) 2011-2014, The OpenBLAS Project


Your calculation utilizes the atom-pairwise dispersion correction
with the Becke-Johnson damping scheme (D3BJ)
Cite in your paper:
S.Grimme, S.Ehrlich, L.Goerigk, J Comput Chem, (2011), 32, 1456–1465 
S.Grimme, J.Antony, S.Ehrlich and H.Krieg, J.Chem.Phys., 132, (2010), 154104 
   

================================================================================

----- Orbital basis set information -----
Your calculation utilizes the basis: def2-SVP
   F. Weigend and R. Ahlrichs, Phys. Chem. Chem. Phys. 7, 3297 (2005).

----- AuxJ basis set information -----
Your calculation utilizes the auxiliary basis: def2/J
   F. Weigend, Phys. Chem. Chem. Phys. 8, 1057 (2006).

================================================================================
                                        WARNINGS
                       Please study these warnings very carefully!
================================================================================


WARNING: your system is open-shell and RHF/RKS was chosen
  ===> : WILL SWITCH to UHF/UKS


INFO   : the flag for use of the SHARK integral package has been found!

================================================================================
                                       INPUT FILE
================================================================================
NAME = 17_2_orca.inp
|  1> ! EnGrad PBE0 RIJCOSX D3BJ def2-SVP def2/J 
|  2> %output 
|  3> xyzfile=True 
|  4> end 
|  5> %scf 
|  6> maxiter 250 
|  7> end
|  8> %output
|  9> Print[P_Hirshfeld] = 1
| 10> end
| 11> % maxcore
| 12> 4000
| 13> *xyz 0 2
| 14> O   -2.49704973   0.22330296   1.58150071 
| 15> O   -0.62249346  -0.28537332   0.89773741 
| 16> C   -0.72699373   0.21729813  -0.44679680 
| 17> C    0.14931956   0.89720786   0.52141851 
| 18> C    1.53217991   0.41283957   0.26420953 
| 19> C    1.45801707  -0.60332207  -0.61045698 
| 20> C    0.11418977  -0.66079935  -1.32335880 
| 21> H   -2.08839728   0.00505091   2.43431209 
| 22> H   -1.72525424   0.58089738  -0.70511009 
| 23> H   -0.15092613   1.78721948   1.08753836 
| 24> H    2.42215531   0.70550788   0.83194650 
| 25> H    2.21246497  -1.33710184  -0.78042232 
| 26> H    0.26481789  -0.27827208  -2.34878845 
| 27> H   -0.34188281  -1.66410285  -1.40356361 
| 28> *
| 29> 
| 30>                          ****END OF INPUT****
================================================================================

                     *******************************
                     * Energy+Gradient Calculation *
                     *******************************

---------------------------------
CARTESIAN COORDINATES (ANGSTROEM)
---------------------------------
  O     -2.497050    0.223303    1.581501
  O     -0.622493   -0.285373    0.897737
  C     -0.726994    0.217298   -0.446797
  C      0.149320    0.897208    0.521419
  C      1.532180    0.412840    0.264210
  C      1.458017   -0.603322   -0.610457
  C      0.114190   -0.660799   -1.323359
  H     -2.088397    0.005051    2.434312
  H     -1.725254    0.580897   -0.705110
  H     -0.150926    1.787219    1.087538
  H      2.422155    0.705508    0.831947
  H      2.212465   -1.337102   -0.780422
  H      0.264818   -0.278272   -2.348788
  H     -0.341883   -1.664103   -1.403564

----------------------------
CARTESIAN COORDINATES (A.U.)
----------------------------
  NO LB      ZA    FRAG     MASS         X           Y           Z
   0 O     8.0000    0    15.999   -4.718740    0.421981    2.988603
   1 O     8.0000    0    15.999   -1.176342   -0.539277    1.696478
   2 C     6.0000    0    12.011   -1.373819    0.410634   -0.844324
   3 C     6.0000    0    12.011    0.282173    1.695477    0.985338
   4 C     6.0000    0    12.011    2.895400    0.780154    0.499284
   5 C     6.0000    0    12.011    2.755253   -1.140113   -1.153597
   6 C     6.0000    0    12.011    0.215787   -1.248730   -2.500786
   7 H     1.0000    0     1.008   -3.946499    0.009545    4.600183
   8 H     1.0000    0     1.008   -3.260258    1.097737   -1.332465
   9 H     1.0000    0     1.008   -0.285209    3.377355    2.055150
  10 H     1.0000    0     1.008    4.577210    1.333217    1.572151
  11 H     1.0000    0     1.008    4.180953   -2.526756   -1.474784
  12 H     1.0000    0     1.008    0.500433   -0.525858   -4.438567
  13 H     1.0000    0     1.008   -0.646065   -3.144699   -2.652351

--------------------------------
INTERNAL COORDINATES (ANGSTROEM)
--------------------------------
 O      0   0   0     0.000000000000     0.00000000     0.00000000
 O      1   0   0     2.059185522885     0.00000000     0.00000000
 C      2   1   0     1.439225880443    99.08104739     0.00000000
 C      2   1   3     1.461440898439   111.49239385    62.30650263
 C      4   2   1     1.487639690030   105.78174902   171.02038684
 C      5   4   2     1.342805313201   107.91907752    52.49434031
 C      3   2   1     1.499001602700   107.51464501   211.58046022
 H      1   2   3     0.970524616935    81.54217907   192.59353739
 H      3   2   1     1.093368289378   113.77533132   353.86124513
 H      4   2   1     1.096704081629   112.28283024    28.02501973
 H      5   4   2     1.095461646699   125.35250582   243.15537206
 H      6   5   4     1.066073450320   125.84768011   198.97835180
 H      7   3   2     1.104772333980   114.61058738   190.38171700
 H      7   3   2     1.105012634718   110.04176650    68.90262251

---------------------------
INTERNAL COORDINATES (A.U.)
---------------------------
 O      0   0   0     0.000000000000     0.00000000     0.00000000
 O      1   0   0     3.891296697187     0.00000000     0.00000000
 C      2   1   0     2.719742758888    99.08104739     0.00000000
 C      2   1   3     2.761723058961   111.49239385    62.30650263
 C      4   2   1     2.811231600108   105.78174902   171.02038684
 C      5   4   2     2.537534293124   107.91907752    52.49434031
 C      3   2   1     2.832702503413   107.51464501   211.58046022
 H      1   2   3     1.834025732237    81.54217907   192.59353739
 H      3   2   1     2.066166630438   113.77533132   353.86124513
 H      4   2   1     2.072470364233   112.28283024    28.02501973
 H      5   4   2     2.070122502475   125.35250582   243.15537206
 H      6   5   4     2.014586859749   125.84768011   198.97835180
 H      7   3   2     2.087717151555   114.61058738   190.38171700
 H      7   3   2     2.088171254140   110.04176650    68.90262251

---------------------
BASIS SET INFORMATION
---------------------
There are 3 groups of distinct atoms

 Group   1 Type O   : 7s4p1d contracted to 3s2p1d pattern {511/31/1}
 Group   2 Type C   : 7s4p1d contracted to 3s2p1d pattern {511/31/1}
 Group   3 Type H   : 4s1p contracted to 2s1p pattern {31/1}

Atom   0O    basis set group =>   1
Atom   1O    basis set group =>   1
Atom   2C    basis set group =>   2
Atom   3C    basis set group =>   2
Atom   4C    basis set group =>   2
Atom   5C    basis set group =>   2
Atom   6C    basis set group =>   2
Atom   7H    basis set group =>   3
Atom   8H    basis set group =>   3
Atom   9H    basis set group =>   3
Atom  10H    basis set group =>   3
Atom  11H    basis set group =>   3
Atom  12H    basis set group =>   3
Atom  13H    basis set group =>   3
---------------------------------
AUXILIARY/J BASIS SET INFORMATION
---------------------------------
There are 3 groups of distinct atoms

 Group   1 Type O   : 12s5p4d2f1g contracted to 6s4p3d1f1g pattern {711111/2111/211/2/1}
 Group   2 Type C   : 12s5p4d2f1g contracted to 6s4p3d1f1g pattern {711111/2111/211/2/1}
 Group   3 Type H   : 5s2p1d contracted to 3s1p1d pattern {311/2/1}

Atom   0O    basis set group =>   1
Atom   1O    basis set group =>   1
Atom   2C    basis set group =>   2
Atom   3C    basis set group =>   2
Atom   4C    basis set group =>   2
Atom   5C    basis set group =>   2
Atom   6C    basis set group =>   2
Atom   7H    basis set group =>   3
Atom   8H    basis set group =>   3
Atom   9H    basis set group =>   3
Atom  10H    basis set group =>   3
Atom  11H    basis set group =>   3
Atom  12H    basis set group =>   3
Atom  13H    basis set group =>   3
------------------------------------------------------------------------------
                           ORCA GTO INTEGRAL CALCULATION
                           -- RI-GTO INTEGRALS CHOSEN --
------------------------------------------------------------------------------
------------------------------------------------------------------------------
                   ___                                                        
                  /   \      - P O W E R E D   B Y -                         
                 /     \                                                     
                 |  |  |   _    _      __       _____    __    __             
                 |  |  |  | |  | |    /  \     |  _  \  |  |  /  |          
                  \  \/   | |  | |   /    \    | | | |  |  | /  /          
                 / \  \   | |__| |  /  /\  \   | |_| |  |  |/  /          
                |  |  |   |  __  | /  /__\  \  |    /   |      \           
                |  |  |   | |  | | |   __   |  |    \   |  |\   \          
                \     /   | |  | | |  |  |  |  | |\  \  |  | \   \       
                 \___/    |_|  |_| |__|  |__|  |_| \__\ |__|  \__/        
                                                                              
                      - O R C A' S   B I G   F R I E N D -                    
                                      &                                       
                       - I N T E G R A L  F E E D E R -                       
                                                                              
 v1 FN, 2020, v2 2021                                                         
------------------------------------------------------------------------------


Reading SHARK input file 17_2_orca.SHARKINP.tmp ... ok
----------------------
SHARK INTEGRAL PACKAGE
----------------------

Number of atoms                             ...     14
Number of basis functions                   ...    133
Number of shells                            ...     63
Maximum angular momentum                    ...      2
Integral batch strategy                     ... SHARK/LIBINT Hybrid
RI-J (if used) integral strategy            ... SPLIT-RIJ (Revised 2003 algorithm where possible)
Printlevel                                  ...      1
Contraction scheme used                     ... SEGMENTED contraction
Coulomb Range Separation                    ... NOT USED
Exchange Range Separation                   ... NOT USED
Finite Nucleus Model                        ... NOT USED
Auxiliary Coulomb fitting basis             ... AVAILABLE
   # of basis functions in Aux-J            ...    420
   # of shells in Aux-J                     ...    140
   Maximum angular momentum in Aux-J        ...      4
Auxiliary J/K fitting basis                 ... NOT available
Auxiliary Correlation fitting basis         ... NOT available
Auxiliary 'external' fitting basis          ... NOT available
Integral threshold                          ...     2.500000e-11
Primitive cut-off                           ...     2.500000e-12
Primitive pair pre-selection threshold      ...     2.500000e-12

Calculating pre-screening integrals         ... done (  0.0 sec) Dimension = 63
Organizing shell pair data                  ... done (  0.0 sec)
Shell pair information
Total number of shell pairs                 ...      2016
Shell pairs after pre-screening             ...      1945
Total number of primitive shell pairs       ...      7252
Primitive shell pairs kept                  ...      5333
          la=0 lb=0:    604 shell pairs
          la=1 lb=0:    709 shell pairs
          la=1 lb=1:    225 shell pairs
          la=2 lb=0:    237 shell pairs
          la=2 lb=1:    143 shell pairs
          la=2 lb=2:     27 shell pairs

Calculating one electron integrals          ... done (  0.0 sec)
Calculating RI/J V-Matrix + Cholesky decomp.... done (  0.0 sec)
Calculating Nuclear repulsion               ... done (  0.0 sec) ENN=    300.219640029994 Eh

SHARK setup successfully completed in   0.1 seconds

Maximum memory used throughout the entire GTOINT-calculation: 16.8 MB
-------------------------------------------------------------------------------
                                 ORCA SCF
-------------------------------------------------------------------------------

------------
SCF SETTINGS
------------
Hamiltonian:
 Density Functional     Method          .... DFT(GTOs)
 Exchange Functional    Exchange        .... PBE
   PBE kappa parameter   XKappa         ....  0.804000
   PBE mue parameter    XMuePBE         ....  0.219520
 Correlation Functional Correlation     .... PBE
   PBE beta parameter  CBetaPBE         ....  0.066725
 LDA part of GGA corr.  LDAOpt          .... PW91-LDA
 Gradients option       PostSCFGGA      .... off
 Hybrid DFT is turned on
   Fraction HF Exchange ScalHFX         ....  0.250000
   Scaling of DF-GGA-X  ScalDFX         ....  0.750000
   Scaling of DF-GGA-C  ScalDFC         ....  1.000000
   Scaling of DF-LDA-C  ScalLDAC        ....  1.000000
   Perturbative correction              ....  0.000000
   Density functional embedding theory  .... OFF
   NL short-range parameter             ....  6.900000
 RI-approximation to the Coulomb term is turned on
   Number of AuxJ basis functions       .... 420
   RIJ-COSX (HFX calculated with COS-X)).... on


General Settings:
 Integral files         IntName         .... 17_2_orca
 Hartree-Fock type      HFTyp           .... UHF
 Total Charge           Charge          ....    0
 Multiplicity           Mult            ....    2
 Number of Electrons    NEL             ....   53
 Basis Dimension        Dim             ....  133
 Nuclear Repulsion      ENuc            ....    300.2196400300 Eh

Convergence Acceleration:
 DIIS                   CNVDIIS         .... on
   Start iteration      DIISMaxIt       ....    12
   Startup error        DIISStart       ....  0.200000
   # of expansion vecs  DIISMaxEq       ....     5
   Bias factor          DIISBfac        ....   1.050
   Max. coefficient     DIISMaxC        ....  10.000
 Trust-Rad. Augm. Hess. CNVTRAH         .... auto
   Auto Start mean grad. ratio tolernc. ....  1.125000
   Auto Start start iteration           ....    20
   Auto Start num. interpolation iter.  ....    10
   Max. Number of Micro iterations      ....    16
   Max. Number of Macro iterations      .... Maxiter - #DIIS iter
   Number of Davidson start vectors     ....     2
   Converg. threshold I  (grad. norm)   ....   1.000e-05
   Converg. threshold II (energy diff.) ....   1.000e-08
   Grad. Scal. Fac. for Micro threshold ....   0.100
   Minimum threshold for Micro iter.    ....   0.010
   NR start threshold (gradient norm)   ....   0.001
   Initial trust radius                 ....   0.400
   Minimum AH scaling param. (alpha)    ....   1.000
   Maximum AH scaling param. (alpha)    .... 1000.000
   Orbital update algorithm             .... Taylor
   White noise on init. David. guess    .... on
   Maximum white noise                  ....   0.010
   Quad. conv. algorithm                .... NR
 SOSCF                  CNVSOSCF        .... off
 Level Shifting         CNVShift        .... on
   Level shift para.    LevelShift      ....    0.2500
   Turn off err/grad.   ShiftErr        ....    0.0010
 Zerner damping         CNVZerner       .... off
 Static damping         CNVDamp         .... on
   Fraction old density DampFac         ....    0.7000
   Max. Damping (<1)    DampMax         ....    0.9800
   Min. Damping (>=0)   DampMin         ....    0.0000
   Turn off err/grad.   DampErr         ....    0.1000
 Fernandez-Rico         CNVRico         .... off

SCF Procedure:
 Maximum # iterations   MaxIter         ....   250
 SCF integral mode      SCFMode         .... Direct
   Integral package                     .... SHARK and LIBINT hybrid scheme
 Reset frequency        DirectResetFreq ....    20
 Integral Threshold     Thresh          ....  2.500e-11 Eh
 Primitive CutOff       TCut            ....  2.500e-12 Eh

Convergence Tolerance:
 Convergence Check Mode ConvCheckMode   .... Total+1el-Energy
 Convergence forced     ConvForced      .... 0
 Energy Change          TolE            ....  1.000e-08 Eh
 1-El. energy change                    ....  1.000e-05 Eh
 DIIS Error             TolErr          ....  5.000e-07


Diagonalization of the overlap matrix:
Smallest eigenvalue                        ... 7.587e-04
Time for diagonalization                   ...    0.002 sec
Threshold for overlap eigenvalues          ... 1.000e-08
Number of eigenvalues below threshold      ... 0
Time for construction of square roots      ...    0.001 sec
Total time needed                          ...    0.003 sec

Time for model grid setup =    0.120 sec

------------------------------
INITIAL GUESS: MODEL POTENTIAL
------------------------------
Loading Hartree-Fock densities                     ... done
Calculating cut-offs                               ... done
Initializing the effective Hamiltonian             ... done
Setting up the integral package (SHARK)            ... done
Starting the Coulomb interaction                   ... done (   0.1 sec)
Reading the grid                                   ... done
Mapping shells                                     ... done
Starting the XC term evaluation                    ... done (   0.1 sec)
  promolecular density results
     # of electrons  =     52.998767086
     EX              =    -43.874840161
     EC              =     -1.755392171
     EX+EC           =    -45.630232332
Transforming the Hamiltonian                       ... done (   0.0 sec)
Diagonalizing the Hamiltonian                      ... done (   0.0 sec)
Back transforming the eigenvectors                 ... done (   0.0 sec)
Now organizing SCF variables                       ... done
                      ------------------
                      INITIAL GUESS DONE (   0.3 sec)
                      ------------------
-------------------
DFT GRID GENERATION
-------------------

General Integration Accuracy     IntAcc      ... 4.388
Radial Grid Type                 RadialGrid  ... OptM3 with GC (2021)
Angular Grid (max. ang.)         AngularGrid ... 4 (Lebedev-302)
Angular grid pruning method      GridPruning ... 4 (adaptive)
Weight generation scheme         WeightScheme... Becke
Basis function cutoff            BFCut       ... 1.0000e-11
Integration weight cutoff        WCut        ... 1.0000e-14
Angular grids for H and He will be reduced by one unit
Partially contracted basis set               ... off
Rotationally invariant grid construction     ... off

Total number of grid points                  ...    64886
Total number of batches                      ...     1019
Average number of points per batch           ...       63
Average number of grid points per atom       ...     4635
Time for grid setup =    0.488 sec

--------------------
COSX GRID GENERATION
--------------------

GRIDX 1
-------
General Integration Accuracy     IntAcc      ... 3.816
Radial Grid Type                 RadialGrid  ... OptM3 with GC (2021)
Angular Grid (max. ang.)         AngularGrid ... 1 (Lebedev-50)
Angular grid pruning method      GridPruning ... 4 (adaptive)
Weight generation scheme         WeightScheme... Becke
Basis function cutoff            BFCut       ... 1.0000e-11
Integration weight cutoff        WCut        ... 1.0000e-14
Angular grids for H and He will be reduced by one unit
Partially contracted basis set               ... on
Rotationally invariant grid construction     ... off

Total number of grid points                  ...     8299
Total number of batches                      ...      137
Average number of points per batch           ...       60
Average number of grid points per atom       ...      593
UseSFitting                                  ... on

GRIDX 2
-------
General Integration Accuracy     IntAcc      ... 4.020
Radial Grid Type                 RadialGrid  ... OptM3 with GC (2021)
Angular Grid (max. ang.)         AngularGrid ... 2 (Lebedev-110)
Angular grid pruning method      GridPruning ... 4 (adaptive)
Weight generation scheme         WeightScheme... Becke
Basis function cutoff            BFCut       ... 1.0000e-11
Integration weight cutoff        WCut        ... 1.0000e-14
Angular grids for H and He will be reduced by one unit
Partially contracted basis set               ... on
Rotationally invariant grid construction     ... off

Total number of grid points                  ...    18049
Total number of batches                      ...      290
Average number of points per batch           ...       62
Average number of grid points per atom       ...     1289
UseSFitting                                  ... on

GRIDX 3
-------
General Integration Accuracy     IntAcc      ... 4.338
Radial Grid Type                 RadialGrid  ... OptM3 with GC (2021)
Angular Grid (max. ang.)         AngularGrid ... 3 (Lebedev-194)
Angular grid pruning method      GridPruning ... 4 (adaptive)
Weight generation scheme         WeightScheme... Becke
Basis function cutoff            BFCut       ... 1.0000e-11
Integration weight cutoff        WCut        ... 1.0000e-14
Angular grids for H and He will be reduced by one unit
Partially contracted basis set               ... on
Rotationally invariant grid construction     ... off

Total number of grid points                  ...    39665
Total number of batches                      ...      626
Average number of points per batch           ...       63
Average number of grid points per atom       ...     2833
UseSFitting                                  ... on

Time for X-Grid setup             =    0.549 sec

--------------
SCF ITERATIONS
--------------
ITER       Energy         Delta-E        Max-DP      RMS-DP      [F,P]     Damp
               ***  Starting incremental Fock matrix formation  ***
  0   -344.1700166656   0.000000000000 0.05156447  0.00145502  0.1529784 0.7000
  1   -344.2579910945  -0.087974428830 0.03764369  0.00098402  0.0596296 0.7000
                               ***Turning on DIIS***
  2   -344.2941299395  -0.036138845018 0.07492836  0.00167151  0.0231722 0.0000
  3   -344.3577834320  -0.063653492497 0.02820234  0.00085381  0.0532054 0.0000
  4   -344.3710976190  -0.013314186996 0.01107055  0.00034572  0.0101687 0.0000
  5   -344.3722076410  -0.001110021990 0.00636411  0.00020202  0.0070115 0.0000
  6   -344.3728097029  -0.000602061916 0.00428987  0.00011550  0.0034413 0.0000
  7   -344.3729966643  -0.000186961422 0.00183767  0.00004974  0.0020901 0.0000
  8   -344.3730563789  -0.000059714610 0.00148065  0.00003503  0.0011280 0.0000
  9   -344.3730806118  -0.000024232858 0.00161549  0.00004238  0.0005956 0.0000
               *** Restarting incremental Fock matrix formation ***
                                   *** Resetting DIIS ***
 10   -344.3731308515  -0.000050239697 0.00039612  0.00001009  0.0002076 0.0000
 11   -344.3731316865  -0.000000834969 0.00017517  0.00000450  0.0001776 0.0000
 12   -344.3731321710  -0.000000484522 0.00030977  0.00000497  0.0001615 0.0000
 13   -344.3731326260  -0.000000455040 0.00044704  0.00000680  0.0001320 0.0000
 14   -344.3731331100  -0.000000483955 0.00053382  0.00000797  0.0000895 0.0000
 15   -344.3731334107  -0.000000300695 0.00014322  0.00000217  0.0000365 0.0000
 16   -344.3731334502  -0.000000039573 0.00013531  0.00000200  0.0000224 0.0000
 17   -344.3731334659  -0.000000015665 0.00004556  0.00000068  0.0000085 0.0000
 18   -344.3731334692  -0.000000003290 0.00002187  0.00000034  0.0000040 0.0000
 19   -344.3731334688   0.000000000362 0.00001571  0.00000025  0.0000034 0.0000
 20   -344.3731334671   0.000000001683 0.00000522  0.00000013  0.0000030 0.0000
 21   -344.3731334658   0.000000001378 0.00000645  0.00000014  0.0000016 0.0000
 22   -344.3731334672  -0.000000001449 0.00000300  0.00000008  0.0000014 0.0000
                 **** Energy Check signals convergence ****

               *****************************************************
               *                     SUCCESS                       *
               *           SCF CONVERGED AFTER  23 CYCLES          *
               *****************************************************

Old exchange energy                            =    -11.184360804 Eh
New exchange energy                            =    -11.184332823 Eh
Exchange energy change after final integration =      0.000027981 Eh
Total energy after final integration           =   -344.373105483 Eh
Final COS-X integration done in                =     4.975 sec

----------------
TOTAL SCF ENERGY
----------------

Total Energy       :         -344.37310548 Eh           -9370.86861 eV

Components:
Nuclear Repulsion  :          300.21964003 Eh            8169.39173 eV
Electronic Energy  :         -644.59274551 Eh          -17540.26034 eV
One Electron Energy:        -1063.74838001 Eh          -28946.06501 eV
Two Electron Energy:          419.15563449 Eh           11405.80467 eV
Max COSX asymmetry :            0.00000162 Eh               0.00004 eV

Virial components:
Potential Energy   :         -685.93798579 Eh          -18665.32152 eV
Kinetic Energy     :          341.56488030 Eh            9294.45291 eV
Virial Ratio       :            2.00822164


DFT components:
N(Alpha)           :       27.000008111819 electrons
N(Beta)            :       26.000007357867 electrons
N(Total)           :       53.000015469686 electrons
E(X)               :      -33.476246958164 Eh       
E(C)               :       -1.770922707376 Eh       
E(XC)              :      -35.247169665540 Eh       
DFET-embed. en.    :        0.000000000000 Eh       

---------------
SCF CONVERGENCE
---------------

  Last Energy change         ...    2.9305e-09  Tolerance :   1.0000e-08
  Last MAX-Density change    ...    0.0000e+00  Tolerance :   1.0000e-07
  Last RMS-Density change    ...    0.0000e+00  Tolerance :   5.0000e-09
  Last DIIS Error            ...    1.2683e-06  Tolerance :   5.0000e-07

             **** THE GBW FILE WAS UPDATED (17_2_orca.gbw) ****
             **** DENSITY 17_2_orca.scfp WAS UPDATED ****
             **** ENERGY FILE WAS UPDATED (17_2_orca.en.tmp) ****
----------------------
UHF SPIN CONTAMINATION
----------------------

Warning: in a DFT calculation there is little theoretical justification to 
         calculate <S**2> as in Hartree-Fock theory. We will do it anyways
         but you should keep in mind that the values have only limited relevance

Expectation value of <S**2>     :     0.753312
Ideal value S*(S+1) for S=0.5   :     0.750000
Deviation                       :     0.003312

             **** THE GBW FILE WAS UPDATED (17_2_orca.gbw) ****
             **** DENSITY 17_2_orca.scfp WAS UPDATED ****
----------------
ORBITAL ENERGIES
----------------
                 SPIN UP ORBITALS
  NO   OCC          E(Eh)            E(eV) 
   0   1.0000     -19.240131      -523.5506 
   1   1.0000     -19.197292      -522.3849 
   2   1.0000     -10.297167      -280.2001 
   3   1.0000     -10.293259      -280.0938 
   4   1.0000     -10.250945      -278.9424 
   5   1.0000     -10.249406      -278.9005 
   6   1.0000     -10.245634      -278.7979 
   7   1.0000      -1.112968       -30.2854 
   8   1.0000      -0.954902       -25.9842 
   9   1.0000      -0.847253       -23.0549 
  10   1.0000      -0.747548       -20.3418 
  11   1.0000      -0.688578       -18.7372 
  12   1.0000      -0.601596       -16.3703 
  13   1.0000      -0.574752       -15.6398 
  14   1.0000      -0.561642       -15.2830 
  15   1.0000      -0.481378       -13.0990 
  16   1.0000      -0.463975       -12.6254 
  17   1.0000      -0.436528       -11.8785 
  18   1.0000      -0.424417       -11.5490 
  19   1.0000      -0.420421       -11.4402 
  20   1.0000      -0.403266       -10.9734 
  21   1.0000      -0.380665       -10.3584 
  22   1.0000      -0.365974        -9.9587 
  23   1.0000      -0.332114        -9.0373 
  24   1.0000      -0.289052        -7.8655 
  25   1.0000      -0.281261        -7.6535 
  26   1.0000      -0.252287        -6.8651 
  27   0.0000      -0.012576        -0.3422 
  28   0.0000       0.076385         2.0785 
  29   0.0000       0.096611         2.6289 
  30   0.0000       0.107638         2.9290 
  31   0.0000       0.110912         3.0181 
  32   0.0000       0.127770         3.4768 
  33   0.0000       0.141380         3.8471 
  34   0.0000       0.141622         3.8537 
  35   0.0000       0.149670         4.0727 
  36   0.0000       0.168334         4.5806 
  37   0.0000       0.193179         5.2567 
  38   0.0000       0.216449         5.8899 
  39   0.0000       0.302189         8.2230 
  40   0.0000       0.317279         8.6336 
  41   0.0000       0.393972        10.7205 
  42   0.0000       0.396568        10.7912 
  43   0.0000       0.455391        12.3918 
  44   0.0000       0.472867        12.8674 
  45   0.0000       0.477842        13.0027 
  46   0.0000       0.501568        13.6484 
  47   0.0000       0.520520        14.1641 
  48   0.0000       0.544251        14.8098 
  49   0.0000       0.556126        15.1329 
  50   0.0000       0.564313        15.3557 
  51   0.0000       0.596143        16.2219 
  52   0.0000       0.620151        16.8752 
  53   0.0000       0.640237        17.4217 
  54   0.0000       0.646394        17.5893 
  55   0.0000       0.659300        17.9405 
  56   0.0000       0.666274        18.1302 
  57   0.0000       0.680614        18.5205 
  58   0.0000       0.682231        18.5644 
  59   0.0000       0.691609        18.8196 
  60   0.0000       0.706405        19.2222 
  61   0.0000       0.733872        19.9697 
  62   0.0000       0.763193        20.7675 
  63   0.0000       0.779170        21.2023 
  64   0.0000       0.833503        22.6808 
  65   0.0000       0.904630        24.6162 
  66   0.0000       0.945574        25.7304 
  67   0.0000       0.961707        26.1694 
  68   0.0000       1.005397        27.3583 
  69   0.0000       1.023126        27.8407 
  70   0.0000       1.044369        28.4187 
  71   0.0000       1.063529        28.9401 
  72   0.0000       1.101227        29.9659 
  73   0.0000       1.141750        31.0686 
  74   0.0000       1.203255        32.7422 
  75   0.0000       1.222136        33.2560 
  76   0.0000       1.301875        35.4258 
  77   0.0000       1.355352        36.8810 
  78   0.0000       1.448134        39.4057 
  79   0.0000       1.472238        40.0616 
  80   0.0000       1.510983        41.1159 
  81   0.0000       1.521913        41.4134 
  82   0.0000       1.544800        42.0361 
  83   0.0000       1.566154        42.6172 
  84   0.0000       1.611646        43.8551 
  85   0.0000       1.641531        44.6683 
  86   0.0000       1.679171        45.6926 
  87   0.0000       1.697134        46.1814 
  88   0.0000       1.707008        46.4500 
  89   0.0000       1.748910        47.5903 
  90   0.0000       1.776444        48.3395 
  91   0.0000       1.790821        48.7307 
  92   0.0000       1.809464        49.2380 
  93   0.0000       1.856697        50.5233 
  94   0.0000       1.861751        50.6608 
  95   0.0000       1.883319        51.2477 
  96   0.0000       1.927092        52.4388 
  97   0.0000       1.954068        53.1729 
  98   0.0000       1.992844        54.2280 
  99   0.0000       2.024182        55.0808 
 100   0.0000       2.038942        55.4824 
 101   0.0000       2.068303        56.2814 
 102   0.0000       2.112743        57.4907 
 103   0.0000       2.154747        58.6336 
 104   0.0000       2.183170        59.4071 
 105   0.0000       2.234170        60.7948 
 106   0.0000       2.248439        61.1831 
 107   0.0000       2.262692        61.5710 
 108   0.0000       2.292740        62.3886 
 109   0.0000       2.380116        64.7663 
 110   0.0000       2.414301        65.6965 
 111   0.0000       2.517641        68.5085 
 112   0.0000       2.532013        68.8996 
 113   0.0000       2.574558        70.0573 
 114   0.0000       2.639038        71.8119 
 115   0.0000       2.670364        72.6643 
 116   0.0000       2.722378        74.0797 
 117   0.0000       2.735419        74.4345 
 118   0.0000       2.765956        75.2655 
 119   0.0000       2.781478        75.6879 
 120   0.0000       2.817543        76.6692 
 121   0.0000       2.857701        77.7620 
 122   0.0000       2.895259        78.7840 
 123   0.0000       2.943472        80.0960 
 124   0.0000       3.018585        82.1399 
 125   0.0000       3.023657        82.2779 
 126   0.0000       3.071079        83.5683 
 127   0.0000       3.095294        84.2272 
 128   0.0000       3.141838        85.4938 
 129   0.0000       3.315580        90.2215 
 130   0.0000       3.392165        92.3055 
 131   0.0000       3.448833        93.8475 
 132   0.0000       3.764123       102.4270 

                 SPIN DOWN ORBITALS
  NO   OCC          E(Eh)            E(eV) 
   0   1.0000     -19.233902      -523.3811 
   1   1.0000     -19.172551      -521.7116 
   2   1.0000     -10.297255      -280.2026 
   3   1.0000     -10.293429      -280.0984 
   4   1.0000     -10.250933      -278.9421 
   5   1.0000     -10.249119      -278.8927 
   6   1.0000     -10.245626      -278.7976 
   7   1.0000      -1.104620       -30.0582 
   8   1.0000      -0.891817       -24.2676 
   9   1.0000      -0.843578       -22.9549 
  10   1.0000      -0.747393       -20.3376 
  11   1.0000      -0.685143       -18.6437 
  12   1.0000      -0.600799       -16.3486 
  13   1.0000      -0.573673       -15.6104 
  14   1.0000      -0.557401       -15.1677 
  15   1.0000      -0.474391       -12.9088 
  16   1.0000      -0.462764       -12.5925 
  17   1.0000      -0.427023       -11.6199 
  18   1.0000      -0.421194       -11.4613 
  19   1.0000      -0.412900       -11.2356 
  20   1.0000      -0.389881       -10.6092 
  21   1.0000      -0.378364       -10.2958 
  22   1.0000      -0.337480        -9.1833 
  23   1.0000      -0.298678        -8.1274 
  24   1.0000      -0.266479        -7.2513 
  25   1.0000      -0.259251        -7.0546 
  26   0.0000      -0.056822        -1.5462 
  27   0.0000      -0.010409        -0.2832 
  28   0.0000       0.077974         2.1218 
  29   0.0000       0.099346         2.7033 
  30   0.0000       0.108242         2.9454 
  31   0.0000       0.112685         3.0663 
  32   0.0000       0.129428         3.5219 
  33   0.0000       0.141949         3.8626 
  34   0.0000       0.142786         3.8854 
  35   0.0000       0.150405         4.0927 
  36   0.0000       0.172418         4.6917 
  37   0.0000       0.194462         5.2916 
  38   0.0000       0.216919         5.9027 
  39   0.0000       0.302576         8.2335 
  40   0.0000       0.317593         8.6421 
  41   0.0000       0.394265        10.7285 
  42   0.0000       0.396817        10.7979 
  43   0.0000       0.456174        12.4131 
  44   0.0000       0.473797        12.8927 
  45   0.0000       0.478309        13.0155 
  46   0.0000       0.502235        13.6665 
  47   0.0000       0.521071        14.1790 
  48   0.0000       0.545626        14.8473 
  49   0.0000       0.558678        15.2024 
  50   0.0000       0.565389        15.3850 
  51   0.0000       0.596539        16.2326 
  52   0.0000       0.620458        16.8835 
  53   0.0000       0.641134        17.4461 
  54   0.0000       0.649062        17.6619 
  55   0.0000       0.666030        18.1236 
  56   0.0000       0.668048        18.1785 
  57   0.0000       0.681038        18.5320 
  58   0.0000       0.683465        18.5980 
  59   0.0000       0.692556        18.8454 
  60   0.0000       0.706784        19.2326 
  61   0.0000       0.734878        19.9970 
  62   0.0000       0.763973        20.7888 
  63   0.0000       0.780057        21.2264 
  64   0.0000       0.834024        22.6949 
  65   0.0000       0.910791        24.7839 
  66   0.0000       0.958684        26.0871 
  67   0.0000       0.969977        26.3944 
  68   0.0000       1.015786        27.6409 
  69   0.0000       1.046794        28.4847 
  70   0.0000       1.066756        29.0279 
  71   0.0000       1.075095        29.2548 
  72   0.0000       1.116879        30.3918 
  73   0.0000       1.155655        31.4470 
  74   0.0000       1.213645        33.0250 
  75   0.0000       1.225507        33.3477 
  76   0.0000       1.309512        35.6336 
  77   0.0000       1.356528        36.9130 
  78   0.0000       1.451510        39.4976 
  79   0.0000       1.472612        40.0718 
  80   0.0000       1.520744        41.3815 
  81   0.0000       1.523683        41.4615 
  82   0.0000       1.547391        42.1066 
  83   0.0000       1.567939        42.6658 
  84   0.0000       1.616672        43.9919 
  85   0.0000       1.644575        44.7512 
  86   0.0000       1.682648        45.7872 
  87   0.0000       1.698291        46.2128 
  88   0.0000       1.707419        46.4612 
  89   0.0000       1.749724        47.6124 
  90   0.0000       1.777764        48.3754 
  91   0.0000       1.795630        48.8616 
  92   0.0000       1.810534        49.2671 
  93   0.0000       1.857714        50.5510 
  94   0.0000       1.862832        50.6902 
  95   0.0000       1.884505        51.2800 
  96   0.0000       1.927663        52.4544 
  97   0.0000       1.954983        53.1978 
  98   0.0000       1.993180        54.2372 
  99   0.0000       2.024754        55.0963 
 100   0.0000       2.040541        55.5259 
 101   0.0000       2.069149        56.3044 
 102   0.0000       2.113950        57.5235 
 103   0.0000       2.155182        58.6455 
 104   0.0000       2.184022        59.4302 
 105   0.0000       2.234799        60.8120 
 106   0.0000       2.257492        61.4295 
 107   0.0000       2.269974        61.7691 
 108   0.0000       2.294076        62.4250 
 109   0.0000       2.380314        64.7716 
 110   0.0000       2.414815        65.7105 
 111   0.0000       2.518601        68.5346 
 112   0.0000       2.533164        68.9309 
 113   0.0000       2.576158        70.1008 
 114   0.0000       2.645156        71.9784 
 115   0.0000       2.724071        74.1257 
 116   0.0000       2.738475        74.5177 
 117   0.0000       2.748499        74.7905 
 118   0.0000       2.781803        75.6967 
 119   0.0000       2.784668        75.7747 
 120   0.0000       2.837912        77.2235 
 121   0.0000       2.873548        78.1932 
 122   0.0000       2.920975        79.4838 
 123   0.0000       2.953912        80.3800 
 124   0.0000       3.030256        82.4575 
 125   0.0000       3.066078        83.4322 
 126   0.0000       3.086028        83.9751 
 127   0.0000       3.102792        84.4313 
 128   0.0000       3.144207        85.5582 
 129   0.0000       3.322048        90.3975 
 130   0.0000       3.396426        92.4215 
 131   0.0000       3.451175        93.9112 
 132   0.0000       3.786180       103.0272 

                    ********************************
                    * MULLIKEN POPULATION ANALYSIS *
                    ********************************

--------------------------------------------
MULLIKEN ATOMIC CHARGES AND SPIN POPULATIONS
--------------------------------------------
   0 O :   -0.273153    0.878692
   1 O :   -0.318351    0.140395
   2 C :    0.021930   -0.009738
   3 C :    0.068541   -0.004294
   4 C :    0.030916   -0.005392
   5 C :   -0.121856    0.018338
   6 C :    0.086798   -0.000574
   7 H :    0.167021   -0.022470
   8 H :    0.074140    0.002904
   9 H :    0.053793    0.002626
  10 H :    0.037814    0.000444
  11 H :    0.030971   -0.000992
  12 H :    0.069354    0.000011
  13 H :    0.072082    0.000049
Sum of atomic charges         :   -0.0000000
Sum of atomic spin populations:    1.0000000

-----------------------------------------------------
MULLIKEN REDUCED ORBITAL CHARGES AND SPIN POPULATIONS
-----------------------------------------------------
CHARGE
  0 O s       :     3.860049  s :     3.860049
      pz      :     1.279781  p :     4.406322
      px      :     1.242652
      py      :     1.883889
      dz2     :     0.002425  d :     0.006781
      dxz     :     0.002455
      dyz     :     0.001002
      dx2y2   :     0.000511
      dxy     :     0.000388
  1 O s       :     3.883259  s :     3.883259
      pz      :     1.353774  p :     4.415899
      px      :     1.592189
      py      :     1.469936
      dz2     :     0.005497  d :     0.019193
      dxz     :     0.002640
      dyz     :     0.004880
      dx2y2   :     0.002644
      dxy     :     0.003532
  2 C s       :     3.202857  s :     3.202857
      pz      :     0.760249  p :     2.704706
      px      :     1.001830
      py      :     0.942627
      dz2     :     0.020752  d :     0.070508
      dxz     :     0.015810
      dyz     :     0.017852
      dx2y2   :     0.007151
      dxy     :     0.008943
  3 C s       :     3.187937  s :     3.187937
      pz      :     0.947021  p :     2.675551
      px      :     0.907756
      py      :     0.820774
      dz2     :     0.008486  d :     0.067971
      dxz     :     0.011356
      dyz     :     0.012503
      dx2y2   :     0.016620
      dxy     :     0.019005
  4 C s       :     3.159093  s :     3.159093
      pz      :     0.979479  p :     2.776096
      px      :     0.836687
      py      :     0.959930
      dz2     :     0.006066  d :     0.033895
      dxz     :     0.007902
      dyz     :     0.004788
      dx2y2   :     0.007662
      dxy     :     0.007477
  5 C s       :     3.221953  s :     3.221953
      pz      :     0.976185  p :     2.864294
      px      :     0.959159
      py      :     0.928950
      dz2     :     0.007983  d :     0.035609
      dxz     :     0.006298
      dyz     :     0.005105
      dx2y2   :     0.007336
      dxy     :     0.008887
  6 C s       :     2.951369  s :     2.951369
      pz      :     0.972493  p :     2.927280
      px      :     0.935130
      py      :     1.019657
      dz2     :     0.007650  d :     0.034553
      dxz     :     0.007298
      dyz     :     0.005351
      dx2y2   :     0.007173
      dxy     :     0.007082
  7 H s       :     0.766184  s :     0.766184
      pz      :     0.028266  p :     0.066795
      px      :     0.017236
      py      :     0.021293
  8 H s       :     0.903250  s :     0.903250
      pz      :     0.002601  p :     0.022610
      px      :     0.014805
      py      :     0.005204
  9 H s       :     0.923896  s :     0.923896
      pz      :     0.007228  p :     0.022311
      px      :     0.003635
      py      :     0.011448
 10 H s       :     0.938328  s :     0.938328
      pz      :     0.007617  p :     0.023858
      px      :     0.011377
      py      :     0.004864
 11 H s       :     0.944232  s :     0.944232
      pz      :     0.004912  p :     0.024797
      px      :     0.009888
      py      :     0.009996
 12 H s       :     0.907293  s :     0.907293
      pz      :     0.013035  p :     0.023353
      px      :     0.004595
      py      :     0.005724
 13 H s       :     0.904852  s :     0.904852
      pz      :     0.004363  p :     0.023066
      px      :     0.005695
      py      :     0.013009

SPIN
  0 O s       :     0.011839  s :     0.011839
      pz      :     0.187491  p :     0.866603
      px      :     0.628657
      py      :     0.050455
      dz2     :    -0.000088  d :     0.000250
      dxz     :     0.000223
      dyz     :    -0.000001
      dx2y2   :     0.000049
      dxy     :     0.000066
  1 O s       :     0.008991  s :     0.008991
      pz      :     0.018785  p :     0.130996
      px      :     0.088648
      py      :     0.023563
      dz2     :    -0.000123  d :     0.000408
      dxz     :     0.000337
      dyz     :     0.000025
      dx2y2   :     0.000283
      dxy     :    -0.000114
  2 C s       :    -0.000653  s :    -0.000653
      pz      :    -0.005907  p :    -0.009688
      px      :    -0.001498
      py      :    -0.002283
      dz2     :     0.000167  d :     0.000603
      dxz     :     0.000324
      dyz     :    -0.000014
      dx2y2   :    -0.000011
      dxy     :     0.000137
  3 C s       :    -0.000051  s :    -0.000051
      pz      :    -0.001517  p :    -0.005006
      px      :    -0.001245
      py      :    -0.002244
      dz2     :     0.000024  d :     0.000763
      dxz     :     0.000017
      dyz     :    -0.000018
      dx2y2   :     0.000802
      dxy     :    -0.000061
  4 C s       :    -0.001271  s :    -0.001271
      pz      :    -0.003292  p :    -0.004270
      px      :     0.002612
      py      :    -0.003590
      dz2     :     0.000034  d :     0.000150
      dxz     :     0.000027
      dyz     :     0.000010
      dx2y2   :     0.000048
      dxy     :     0.000031
  5 C s       :     0.003186  s :     0.003186
      pz      :     0.006695  p :     0.015215
      px      :     0.002485
      py      :     0.006035
      dz2     :    -0.000017  d :    -0.000063
      dxz     :    -0.000014
      dyz     :    -0.000022
      dx2y2   :    -0.000022
      dxy     :     0.000011
  6 C s       :    -0.000617  s :    -0.000617
      pz      :     0.000037  p :     0.000018
      px      :    -0.000410
      py      :     0.000391
      dz2     :    -0.000021  d :     0.000026
      dxz     :     0.000023
      dyz     :    -0.000001
      dx2y2   :    -0.000010
      dxy     :     0.000034
  7 H s       :    -0.027761  s :    -0.027761
      pz      :     0.002185  p :     0.005292
      px      :     0.003550
      py      :    -0.000443
  8 H s       :     0.002956  s :     0.002956
      pz      :    -0.000033  p :    -0.000052
      px      :    -0.000007
      py      :    -0.000012
  9 H s       :     0.002686  s :     0.002686
      pz      :    -0.000031  p :    -0.000060
      px      :    -0.000013
      py      :    -0.000015
 10 H s       :     0.000451  s :     0.000451
      pz      :     0.000016  p :    -0.000007
      px      :    -0.000002
      py      :    -0.000021
 11 H s       :    -0.001120  s :    -0.001120
      pz      :     0.000060  p :     0.000128
      px      :     0.000029
      py      :     0.000039
 12 H s       :     0.000001  s :     0.000001
      pz      :    -0.000002  p :     0.000010
      px      :     0.000008
      py      :     0.000003
 13 H s       :     0.000056  s :     0.000056
      pz      :    -0.000001  p :    -0.000007
      px      :    -0.000004
      py      :    -0.000002


                     *******************************
                     * LOEWDIN POPULATION ANALYSIS *
                     *******************************

-------------------------------------------
LOEWDIN ATOMIC CHARGES AND SPIN POPULATIONS
-------------------------------------------
   0 O :   -0.176092    0.837041
   1 O :   -0.122196    0.153310
   2 C :    0.070460   -0.004757
   3 C :    0.062010   -0.002571
   4 C :   -0.054699   -0.002618
   5 C :    0.001787    0.013647
   6 C :   -0.047711    0.000397
   7 H :    0.046709    0.002592
   8 H :    0.032849    0.001462
   9 H :    0.030724    0.001309
  10 H :    0.034600    0.000272
  11 H :    0.024997   -0.000062
  12 H :    0.047032    0.000001
  13 H :    0.049529   -0.000023

----------------------------------------------------
LOEWDIN REDUCED ORBITAL CHARGES AND SPIN POPULATIONS
----------------------------------------------------
CHARGE
  0 O s       :     3.681259  s :     3.681259
      pz      :     1.357492  p :     4.482433
      px      :     1.261002
      py      :     1.863940
      dz2     :     0.004742  d :     0.012399
      dxz     :     0.004889
      dyz     :     0.001333
      dx2y2   :     0.000852
      dxy     :     0.000583
  1 O s       :     3.579079  s :     3.579079
      pz      :     1.407785  p :     4.511607
      px      :     1.582995
      py      :     1.520827
      dz2     :     0.008761  d :     0.031510
      dxz     :     0.004065
      dyz     :     0.008882
      dx2y2   :     0.004031
      dxy     :     0.005772
  2 C s       :     2.860358  s :     2.860358
      pz      :     0.857619  p :     2.913958
      px      :     1.056795
      py      :     0.999544
      dz2     :     0.041803  d :     0.155224
      dxz     :     0.037555
      dyz     :     0.039969
      dx2y2   :     0.014591
      dxy     :     0.021306
  3 C s       :     2.867683  s :     2.867683
      pz      :     1.015932  p :     2.920159
      px      :     0.986540
      py      :     0.917687
      dz2     :     0.018323  d :     0.150147
      dxz     :     0.025995
      dyz     :     0.027798
      dx2y2   :     0.038589
      dxy     :     0.039442
  4 C s       :     2.881484  s :     2.881484
      pz      :     1.029895  p :     3.085404
      px      :     1.017732
      py      :     1.037777
      dz2     :     0.013244  d :     0.087811
      dxz     :     0.020499
      dyz     :     0.013936
      dx2y2   :     0.020872
      dxy     :     0.019259
  5 C s       :     2.880126  s :     2.880126
      pz      :     1.000090  p :     3.030045
      px      :     1.002858
      py      :     1.027097
      dz2     :     0.016364  d :     0.088042
      dxz     :     0.015792
      dyz     :     0.014543
      dx2y2   :     0.019331
      dxy     :     0.022012
  6 C s       :     2.843644  s :     2.843644
      pz      :     1.039251  p :     3.115104
      px      :     1.018695
      py      :     1.057158
      dz2     :     0.019854  d :     0.088964
      dxz     :     0.019341
      dyz     :     0.013112
      dx2y2   :     0.018884
      dxy     :     0.017772
  7 H s       :     0.770468  s :     0.770468
      pz      :     0.081788  p :     0.182823
      px      :     0.045620
      py      :     0.055415
  8 H s       :     0.895144  s :     0.895144
      pz      :     0.010894  p :     0.072007
      px      :     0.043481
      py      :     0.017632
  9 H s       :     0.899123  s :     0.899123
      pz      :     0.022274  p :     0.070153
      px      :     0.013804
      py      :     0.034074
 10 H s       :     0.895433  s :     0.895433
      pz      :     0.021861  p :     0.069967
      px      :     0.033630
      py      :     0.014476
 11 H s       :     0.900146  s :     0.900146
      pz      :     0.016179  p :     0.074857
      px      :     0.030436
      py      :     0.028241
 12 H s       :     0.885782  s :     0.885782
      pz      :     0.037512  p :     0.067186
      px      :     0.013490
      py      :     0.016184
 13 H s       :     0.883415  s :     0.883415
      pz      :     0.012475  p :     0.067055
      px      :     0.017360
      py      :     0.037220

SPIN
  0 O s       :     0.010267  s :     0.010267
      pz      :     0.175749  p :     0.826684
      px      :     0.602845
      py      :     0.048090
      dz2     :    -0.000222  d :     0.000091
      dxz     :     0.000278
      dyz     :    -0.000003
      dx2y2   :     0.000030
      dxy     :     0.000008
  1 O s       :     0.013771  s :     0.013771
      pz      :     0.019109  p :     0.139028
      px      :     0.097143
      py      :     0.022776
      dz2     :    -0.000100  d :     0.000510
      dxz     :     0.000377
      dyz     :     0.000016
      dx2y2   :     0.000333
      dxy     :    -0.000116
  2 C s       :    -0.000481  s :    -0.000481
      pz      :    -0.003391  p :    -0.006009
      px      :    -0.000315
      py      :    -0.002303
      dz2     :     0.000597  d :     0.001734
      dxz     :     0.000926
      dyz     :    -0.000049
      dx2y2   :     0.000007
      dxy     :     0.000252
  3 C s       :    -0.000579  s :    -0.000579
      pz      :    -0.001164  p :    -0.003710
      px      :    -0.000530
      py      :    -0.002016
      dz2     :     0.000015  d :     0.001719
      dxz     :     0.000050
      dyz     :     0.000020
      dx2y2   :     0.001647
      dxy     :    -0.000014
  4 C s       :     0.000358  s :     0.000358
      pz      :    -0.002090  p :    -0.003365
      px      :     0.001765
      py      :    -0.003040
      dz2     :     0.000068  d :     0.000390
      dxz     :     0.000042
      dyz     :     0.000015
      dx2y2   :     0.000186
      dxy     :     0.000077
  5 C s       :     0.000739  s :     0.000739
      pz      :     0.006180  p :     0.013058
      px      :     0.002562
      py      :     0.004316
      dz2     :    -0.000061  d :    -0.000150
      dxz     :    -0.000012
      dyz     :    -0.000021
      dx2y2   :    -0.000051
      dxy     :    -0.000005
  6 C s       :     0.000073  s :     0.000073
      pz      :     0.000166  p :     0.000246
      px      :    -0.000134
      py      :     0.000214
      dz2     :    -0.000032  d :     0.000078
      dxz     :     0.000063
      dyz     :     0.000000
      dx2y2   :    -0.000019
      dxy     :     0.000067
  7 H s       :    -0.018534  s :    -0.018534
      pz      :     0.008948  p :     0.021127
      px      :     0.012143
      py      :     0.000035
  8 H s       :     0.001580  s :     0.001580
      pz      :    -0.000139  p :    -0.000118
      px      :     0.000089
      py      :    -0.000068
  9 H s       :     0.001518  s :     0.001518
      pz      :    -0.000046  p :    -0.000209
      px      :    -0.000030
      py      :    -0.000134
 10 H s       :     0.000318  s :     0.000318
      pz      :    -0.000019  p :    -0.000046
      px      :     0.000042
      py      :    -0.000069
 11 H s       :    -0.000517  s :    -0.000517
      pz      :     0.000196  p :     0.000455
      px      :     0.000114
      py      :     0.000145
 12 H s       :    -0.000041  s :    -0.000041
      pz      :     0.000004  p :     0.000042
      px      :     0.000025
      py      :     0.000013
 13 H s       :    -0.000013  s :    -0.000013
      pz      :     0.000005  p :    -0.000011
      px      :    -0.000014
      py      :    -0.000002


                      *****************************
                      * MAYER POPULATION ANALYSIS *
                      *****************************

  NA   - Mulliken gross atomic population
  ZA   - Total nuclear charge
  QA   - Mulliken gross atomic charge
  VA   - Mayer's total valence
  BVA  - Mayer's bonded valence
  FA   - Mayer's free valence

  ATOM       NA         ZA         QA         VA         BVA        FA
  0 O      8.2732     8.0000    -0.2732     2.0112     1.2844     0.7268
  1 O      8.3184     8.0000    -0.3184     2.0786     2.0578     0.0208
  2 C      5.9781     6.0000     0.0219     3.9618     3.9617     0.0001
  3 C      5.9315     6.0000     0.0685     3.9105     3.9105     0.0000
  4 C      5.9691     6.0000     0.0309     3.7745     3.7744     0.0001
  5 C      6.1219     6.0000    -0.1219     3.9640     3.9637     0.0002
  6 C      5.9132     6.0000     0.0868     3.8156     3.8156     0.0000
  7 H      0.8330     1.0000     0.1670     1.0120     1.0109     0.0011
  8 H      0.9259     1.0000     0.0741     1.0068     1.0068     0.0000
  9 H      0.9462     1.0000     0.0538     1.0032     1.0032     0.0000
 10 H      0.9622     1.0000     0.0378     0.9883     0.9883     0.0000
 11 H      0.9690     1.0000     0.0310     0.9909     0.9909     0.0000
 12 H      0.9306     1.0000     0.0694     0.9782     0.9782     0.0000
 13 H      0.9279     1.0000     0.0721     0.9820     0.9820     0.0000

  Mayer bond orders larger than 0.100000
B(  0-O ,  1-O ) :   0.2003 B(  0-O ,  7-H ) :   0.9877 B(  1-O ,  2-C ) :   0.9034 
B(  1-O ,  3-C ) :   0.8838 B(  2-C ,  3-C ) :   1.0275 B(  2-C ,  6-C ) :   1.0043 
B(  2-C ,  8-H ) :   0.9584 B(  3-C ,  4-C ) :   0.9728 B(  3-C ,  9-H ) :   0.9705 
B(  4-C ,  5-C ) :   1.8233 B(  4-C , 10-H ) :   0.9955 B(  5-C ,  6-C ) :   1.0136 
B(  5-C , 11-H ) :   0.9775 B(  6-C , 12-H ) :   0.9274 B(  6-C , 13-H ) :   0.9266 



------------------
HIRSHFELD ANALYSIS
------------------

Total integrated alpha density =     27.000008112
Total integrated beta density  =     26.000007358

  ATOM     CHARGE      SPIN    
   0 O   -0.265861    0.807822
   1 O   -0.136233    0.152358
   2 C    0.057021    0.000467
   3 C    0.046091    0.001641
   4 C   -0.049078    0.000134
   5 C   -0.020905    0.011932
   6 C   -0.038600    0.001335
   7 H    0.134420    0.020555
   8 H    0.052995    0.001875
   9 H    0.052374    0.000900
  10 H    0.044214    0.000130
  11 H    0.041262    0.000651
  12 H    0.039019    0.000140
  13 H    0.043264    0.000061

  TOTAL  -0.000015    1.000001

-------
TIMINGS
-------

Total SCF time: 0 days 0 hours 1 min 4 sec 

Total time                  ....      64.811 sec
Sum of individual times     ....      64.653 sec  ( 99.8%)

Fock matrix formation       ....      62.789 sec  ( 96.9%)
  Split-RI-J                ....       3.805 sec  (  6.1% of F)
  Chain of spheres X        ....      42.999 sec  ( 68.5% of F)
  XC integration            ....      15.987 sec  ( 25.5% of F)
    Basis function eval.    ....       4.720 sec  ( 29.5% of XC)
    Density eval.           ....       4.446 sec  ( 27.8% of XC)
    XC-Functional eval.     ....       1.619 sec  ( 10.1% of XC)
    XC-Potential eval.      ....       4.833 sec  ( 30.2% of XC)
Diagonalization             ....       0.104 sec  (  0.2%)
Density matrix formation    ....       0.009 sec  (  0.0%)
Population analysis         ....       0.350 sec  (  0.5%)
Initial guess               ....       0.217 sec  (  0.3%)
Orbital Transformation      ....       0.000 sec  (  0.0%)
Orbital Orthonormalization  ....       0.000 sec  (  0.0%)
DIIS solution               ....       0.027 sec  (  0.0%)
Grid generation             ....       1.157 sec  (  1.8%)

Maximum memory used throughout the entire SCF-calculation: 63.5 MB


-------------------------------------------------------------------------------
                          DFT DISPERSION CORRECTION                            
                                                                               
                              DFTD3 V3.1  Rev 1                                
                          USING Becke-Johnson damping                          
-------------------------------------------------------------------------------
The PBE0 functional is recognized
Active option DFTDOPT                   ...         4   

molecular C6(AA) [au] = 1742.683603 


            DFT-D V3
 parameters
 s6 scaling factor         :     1.0000 
 a1 scaling factor         :     0.4145 
 s8 scaling factor         :     1.2177 
 a2 scaling factor         :     4.8593 
 ad hoc parameters k1-k3   :    16.0000     1.3333    -4.0000 

 Edisp/kcal,au: -6.133830150243  -0.009774879503 
 E6   /kcal   :  -3.901339785 
 E8   /kcal   :  -2.232490365 
 % E8         :  36.396351228 

-------------------------   ----------------
Dispersion correction           -0.009774880
-------------------------   ----------------


-------------------------   --------------------
FINAL SINGLE POINT ENERGY      -344.382880362876
-------------------------   --------------------

------------------------------------------------------------------------------
                         ORCA SCF GRADIENT CALCULATION
------------------------------------------------------------------------------

 ... reading COSX grid (gridx3)
Gradient of the Kohn-Sham DFT energy:
Kohn-Sham wavefunction type      ... UKS
Hartree-Fock exchange scaling    ...    0.250
Number of operators              ...    2
Number of atoms                  ...   14
Basis set dimensions             ...  133
Integral neglect threshold       ... 2.5e-11
Integral primitive cutoff        ... 2.5e-12
SHARK Integral package           ... ON

Nuc. rep. gradient       (SHARK) ... done (  0.0 sec)
HCore & Overlap gradient (SHARK) ... done (  0.1 sec)
RI-J gradient            (SHARK) ... done (  0.6 sec)
COSX-gradient                    ... done (  6.6 sec)
Exchange-correlation gradient    ... done
Dispersion correction            ... done

------------------
CARTESIAN GRADIENT
------------------

   1   O   :    0.014628516   -0.006514525   -0.007772793
   2   O   :   -0.005338957   -0.012827370    0.013632592
   3   C   :    0.000966135    0.007265677   -0.014522970
   4   C   :    0.003597662    0.010173691   -0.005880686
   5   C   :   -0.002450654    0.003110490   -0.001645896
   6   C   :    0.013930896   -0.012062411    0.004955383
   7   C   :   -0.009814199    0.002576390   -0.001543335
   8   H   :    0.002532229    0.000224381    0.000322732
   9   H   :   -0.001472920   -0.000446383    0.001120243
  10   H   :   -0.003283900    0.000148243    0.004515450
  11   H   :    0.003702812    0.001273829   -0.000034349
  12   H   :   -0.017823084    0.008640225    0.007453510
  13   H   :    0.004832543   -0.000793012    0.000078880
  14   H   :   -0.004081675   -0.000762621   -0.000634443

Difference to translation invariance:
           :   -0.0000745953    0.0000066041    0.0000443175

Difference to rotation invariance:
           :   -0.0004335507    0.0002554174    0.0000328969

Norm of the cartesian gradient     ...    0.0463194460
RMS gradient                       ...    0.0071472457
MAX gradient                       ...    0.0178230840

-------
TIMINGS
-------

Total SCF gradient time            ...       11.155 sec

One electron gradient       ....       0.097 sec  (  0.9%)
RI-J Coulomb gradient       ....       0.585 sec  (  5.2%)
COSX gradient               ....       6.642 sec  ( 59.5%)
XC gradient                 ....       3.535 sec  ( 31.7%)

Maximum memory used throughout the entire SCFGRAD-calculation: 50.3 MB

                            ***************************************
                            *     ORCA property calculations      *
                            ***************************************

                                    ---------------------
                                    Active property flags
                                    ---------------------
   (+) Dipole Moment


------------------------------------------------------------------------------
                       ORCA ELECTRIC PROPERTIES CALCULATION
------------------------------------------------------------------------------

Dipole Moment Calculation                       ... on
Quadrupole Moment Calculation                   ... off
Polarizability Calculation                      ... off
GBWName                                         ... 17_2_orca.gbw
Electron density                                ... 17_2_orca.scfp
The origin for moment calculation is the CENTER OF MASS  = (-0.361580,  0.037488  0.374037)

-------------
DIPOLE MOMENT
-------------
                                X             Y             Z
Electronic contribution:     -0.89622       0.46485       1.75281
Nuclear contribution   :      1.77242      -0.32017      -2.09848
                        -----------------------------------------
Total Dipole Moment    :      0.87619       0.14468      -0.34567
                        -----------------------------------------
Magnitude (a.u.)       :      0.95296
Magnitude (Debye)      :      2.42224



--------------------
Rotational spectrum 
--------------------
 
Rotational constants in cm-1:     0.202970     0.067859     0.057808 
Rotational constants in MHz :  6084.886134  2034.347757  1733.042349 

 Dipole components along the rotational axes: 
x,y,z [a.u.] :     0.903137     0.261961     0.154456 
x,y,z [Debye]:     2.295592     0.665851     0.392596 

 

Timings for individual modules:

Sum of individual times         ...       76.182 sec (=   1.270 min)
GTO integral calculation        ...        0.164 sec (=   0.003 min)   0.2 %
SCF iterations                  ...       64.835 sec (=   1.081 min)  85.1 %
SCF Gradient evaluation         ...       11.184 sec (=   0.186 min)  14.7 %
                             ****ORCA TERMINATED NORMALLY****
TOTAL RUN TIME: 0 days 0 hours 1 minutes 16 seconds 336 msec
