
                                 *****************
                                 * O   R   C   A *
                                 *****************

                                            #,                                       
                                            ###                                      
                                            ####                                     
                                            #####                                    
                                            ######                                   
                                           ########,                                 
                                     ,,################,,,,,                         
                               ,,#################################,,                 
                          ,,##########################################,,             
                       ,#########################################, ''#####,          
                    ,#############################################,,   '####,        
                  ,##################################################,,,,####,       
                ,###########''''           ''''###############################       
              ,#####''   ,,,,##########,,,,          '''####'''          '####       
            ,##' ,,,,###########################,,,                        '##       
           ' ,,###''''                  '''############,,,                           
         ,,##''                                '''############,,,,        ,,,,,,###''
      ,#''                                            '''#######################'''  
     '                                                          ''''####''''         
             ,#######,   #######,   ,#######,      ##                                
            ,#'     '#,  ##    ##  ,#'     '#,    #''#        ######   ,####,        
            ##       ##  ##   ,#'  ##            #'  '#       #        #'  '#        
            ##       ##  #######   ##           ,######,      #####,   #    #        
            '#,     ,#'  ##    ##  '#,     ,#' ,#      #,         ##   #,  ,#        
             '#######'   ##     ##  '#######'  #'      '#     #####' # '####'        



                  #######################################################
                  #                        -***-                        #
                  #          Department of theory and spectroscopy      #
                  #    Directorship and core code : Frank Neese         #
                  #        Max Planck Institute fuer Kohlenforschung    #
                  #                Kaiser Wilhelm Platz 1               #
                  #                 D-45470 Muelheim/Ruhr               #
                  #                      Germany                        #
                  #                                                     #
                  #                  All rights reserved                #
                  #                        -***-                        #
                  #######################################################


                         Program Version 5.0.4 -  RELEASE  -


 With contributions from (in alphabetic order):
   Daniel Aravena         : Magnetic Suceptibility
   Michael Atanasov       : Ab Initio Ligand Field Theory (pilot matlab implementation)
   Alexander A. Auer      : GIAO ZORA, VPT2 properties, NMR spectrum
   Ute Becker             : Parallelization
   Giovanni Bistoni       : ED, misc. LED, open-shell LED, HFLD
   Martin Brehm           : Molecular dynamics
   Dmytro Bykov           : SCF Hessian
   Vijay G. Chilkuri      : MRCI spin determinant printing, contributions to CSF-ICE
   Dipayan Datta          : RHF DLPNO-CCSD density
   Achintya Kumar Dutta   : EOM-CC, STEOM-CC
   Dmitry Ganyushin       : Spin-Orbit,Spin-Spin,Magnetic field MRCI
   Miquel Garcia          : C-PCM and meta-GGA Hessian, CC/C-PCM, Gaussian charge scheme
   Yang Guo               : DLPNO-NEVPT2, F12-NEVPT2, CIM, IAO-localization
   Andreas Hansen         : Spin unrestricted coupled pair/coupled cluster methods
   Benjamin Helmich-Paris : MC-RPA, TRAH-SCF, COSX integrals
   Lee Huntington         : MR-EOM, pCC
   Robert Izsak           : Overlap fitted RIJCOSX, COSX-SCS-MP3, EOM
   Marcus Kettner         : VPT2
   Christian Kollmar      : KDIIS, OOCD, Brueckner-CCSD(T), CCSD density, CASPT2, CASPT2-K
   Simone Kossmann        : Meta GGA functionals, TD-DFT gradient, OOMP2, MP2 Hessian
   Martin Krupicka        : Initial AUTO-CI
   Lucas Lang             : DCDCAS
   Marvin Lechner         : AUTO-CI (C++ implementation), FIC-MRCC
   Dagmar Lenk            : GEPOL surface, SMD
   Dimitrios Liakos       : Extrapolation schemes; Compound Job, initial MDCI parallelization
   Dimitrios Manganas     : Further ROCIS development; embedding schemes
   Dimitrios Pantazis     : SARC Basis sets
   Anastasios Papadopoulos: AUTO-CI, single reference methods and gradients
   Taras Petrenko         : DFT Hessian,TD-DFT gradient, ASA, ECA, R-Raman, ABS, FL, XAS/XES, NRVS
   Peter Pinski           : DLPNO-MP2, DLPNO-MP2 Gradient
   Christoph Reimann      : Effective Core Potentials
   Marius Retegan         : Local ZFS, SOC
   Christoph Riplinger    : Optimizer, TS searches, QM/MM, DLPNO-CCSD(T), (RO)-DLPNO pert. Triples
   Tobias Risthaus        : Range-separated hybrids, TD-DFT gradient, RPA, STAB
   Michael Roemelt        : Original ROCIS implementation
   Masaaki Saitow         : Open-shell DLPNO-CCSD energy and density
   Barbara Sandhoefer     : DKH picture change effects
   Avijit Sen             : IP-ROCIS
   Kantharuban Sivalingam : CASSCF convergence, NEVPT2, FIC-MRCI
   Bernardo de Souza      : ESD, SOC TD-DFT
   Georgi Stoychev        : AutoAux, RI-MP2 NMR, DLPNO-MP2 response
   Willem Van den Heuvel  : Paramagnetic NMR
   Boris Wezisla          : Elementary symmetry handling
   Frank Wennmohs         : Technical directorship


 We gratefully acknowledge several colleagues who have allowed us to
 interface, adapt or use parts of their codes:
   Stefan Grimme, W. Hujo, H. Kruse, P. Pracht,  : VdW corrections, initial TS optimization,
                  C. Bannwarth, S. Ehlert          DFT functionals, gCP, sTDA/sTD-DF
   Ed Valeev, F. Pavosevic, A. Kumar             : LibInt (2-el integral package), F12 methods
   Garnet Chan, S. Sharma, J. Yang, R. Olivares  : DMRG
   Ulf Ekstrom                                   : XCFun DFT Library
   Mihaly Kallay                                 : mrcc  (arbitrary order and MRCC methods)
   Jiri Pittner, Ondrej Demel                    : Mk-CCSD
   Frank Weinhold                                : gennbo (NPA and NBO analysis)
   Christopher J. Cramer and Donald G. Truhlar   : smd solvation model
   Lars Goerigk                                  : TD-DFT with DH, B97 family of functionals
   V. Asgeirsson, H. Jonsson                     : NEB implementation
   FAccTs GmbH                                   : IRC, NEB, NEB-TS, DLPNO-Multilevel, CI-OPT
                                                   MM, QMMM, 2- and 3-layer-ONIOM, Crystal-QMMM,
                                                   LR-CPCM, SF, NACMEs, symmetry and pop. for TD-DFT,
                                                   nearIR, NL-DFT gradient (VV10), updates on ESD,
                                                   ML-optimized integration grids
   S Lehtola, MJT Oliveira, MAL Marques          : LibXC Library
   Liviu Ungur et al                             : ANISO software


 Your calculation uses the libint2 library for the computation of 2-el integrals
 For citations please refer to: http://libint.valeyev.net

 Your ORCA version has been built with support for libXC version: 5.1.0
 For citations please refer to: https://tddft.org/programs/libxc/

 This ORCA versions uses:
   CBLAS   interface :  Fast vector & matrix operations
   LAPACKE interface :  Fast linear algebra routines
   SCALAPACK package :  Parallel linear algebra routines
   Shared memory     :  Shared parallel matrices
   BLAS/LAPACK       :  OpenBLAS 0.3.15  USE64BITINT DYNAMIC_ARCH NO_AFFINITY SkylakeX SINGLE_THREADED
        Core in use  :  SkylakeX
   Copyright (c) 2011-2014, The OpenBLAS Project


Your calculation utilizes the atom-pairwise dispersion correction
with the Becke-Johnson damping scheme (D3BJ)
Cite in your paper:
S.Grimme, S.Ehrlich, L.Goerigk, J Comput Chem, (2011), 32, 1456–1465 
S.Grimme, J.Antony, S.Ehrlich and H.Krieg, J.Chem.Phys., 132, (2010), 154104 
   

================================================================================

----- Orbital basis set information -----
Your calculation utilizes the basis: def2-SVP
   F. Weigend and R. Ahlrichs, Phys. Chem. Chem. Phys. 7, 3297 (2005).

----- AuxJ basis set information -----
Your calculation utilizes the auxiliary basis: def2/J
   F. Weigend, Phys. Chem. Chem. Phys. 8, 1057 (2006).

================================================================================
                                        WARNINGS
                       Please study these warnings very carefully!
================================================================================


WARNING: your system is open-shell and RHF/RKS was chosen
  ===> : WILL SWITCH to UHF/UKS


INFO   : the flag for use of the SHARK integral package has been found!

================================================================================
                                       INPUT FILE
================================================================================
NAME = 10_1_orca.inp
|  1> ! EnGrad PBE0 RIJCOSX D3BJ def2-SVP def2/J 
|  2> %output 
|  3> xyzfile=True 
|  4> end 
|  5> %scf 
|  6> maxiter 250 
|  7> end
|  8> %output
|  9> Print[P_Hirshfeld] = 1
| 10> end
| 11> % maxcore
| 12> 4000
| 13> *xyz 0 2
| 14> O   -2.37351005  -0.61226869   1.60723017 
| 15> O   -0.52339961  -0.08732438   0.91522793 
| 16> C   -0.70359892   0.30847803  -0.38386932 
| 17> C    0.20658759   0.98987558   0.47238400 
| 18> C    1.56913740   0.41338908   0.24197134 
| 19> C    1.44236491  -0.65327671  -0.56627046 
| 20> C    0.04337596  -0.63064539  -1.26453879 
| 21> H   -2.28967914   0.22258482   2.09275045 
| 22> H   -1.70025715   0.71010991  -0.64507165 
| 23> H    0.03328785   1.97342371   0.99577070 
| 24> H    2.46820552   0.67490316   0.81229608 
| 25> H    2.09682702  -1.40690805  -0.69774028 
| 26> H    0.19798634  -0.29161512  -2.29573168 
| 27> H   -0.46725988  -1.61082169  -1.28435940 
| 28> *
| 29> 
| 30>                          ****END OF INPUT****
================================================================================

                     *******************************
                     * Energy+Gradient Calculation *
                     *******************************

---------------------------------
CARTESIAN COORDINATES (ANGSTROEM)
---------------------------------
  O     -2.373510   -0.612269    1.607230
  O     -0.523400   -0.087324    0.915228
  C     -0.703599    0.308478   -0.383869
  C      0.206588    0.989876    0.472384
  C      1.569137    0.413389    0.241971
  C      1.442365   -0.653277   -0.566270
  C      0.043376   -0.630645   -1.264539
  H     -2.289679    0.222585    2.092750
  H     -1.700257    0.710110   -0.645072
  H      0.033288    1.973424    0.995771
  H      2.468206    0.674903    0.812296
  H      2.096827   -1.406908   -0.697740
  H      0.197986   -0.291615   -2.295732
  H     -0.467260   -1.610822   -1.284359

----------------------------
CARTESIAN COORDINATES (A.U.)
----------------------------
  NO LB      ZA    FRAG     MASS         X           Y           Z
   0 O     8.0000    0    15.999   -4.485284   -1.157020    3.037225
   1 O     8.0000    0    15.999   -0.989082   -0.165019    1.729530
   2 C     6.0000    0    12.011   -1.329609    0.582939   -0.725408
   3 C     6.0000    0    12.011    0.390394    1.870594    0.892676
   4 C     6.0000    0    12.011    2.965240    0.781192    0.457260
   5 C     6.0000    0    12.011    2.725675   -1.234514   -1.070096
   6 C     6.0000    0    12.011    0.081969   -1.191747   -2.389632
   7 H     1.0000    0     1.008   -4.326867    0.420624    3.954725
   8 H     1.0000    0     1.008   -3.213020    1.341913   -1.219009
   9 H     1.0000    0     1.008    0.062905    3.729230    1.881734
  10 H     1.0000    0     1.008    4.664232    1.275382    1.535017
  11 H     1.0000    0     1.008    3.962429   -2.658671   -1.318538
  12 H     1.0000    0     1.008    0.374140   -0.551073   -4.338304
  13 H     1.0000    0     1.008   -0.882993   -3.044012   -2.427088

--------------------------------
INTERNAL COORDINATES (ANGSTROEM)
--------------------------------
 O      0   0   0     0.000000000000     0.00000000     0.00000000
 O      1   0   0     2.043854757306     0.00000000     0.00000000
 C      2   1   0     1.369958030030   106.03364812     0.00000000
 C      2   1   3     1.374536944693   142.28829637    65.52401521
 C      4   2   1     1.497320494517   103.36348616   176.63553877
 C      5   4   2     1.344284932239   108.19215214    53.45496718
 C      3   2   1     1.488456578048   108.22586155   243.58160973
 H      1   2   3     0.969400818507    82.53635629   253.32923127
 H      3   2   1     1.105831113532   116.58147844    26.94909625
 H      4   2   1     1.127534195334   116.89969133    37.94821965
 H      5   4   2     1.096350038763   125.05455162   246.14494685
 H      6   5   4     1.006759734806   127.67543622   199.44260687
 H      7   3   2     1.096450942800   115.60258803   194.97761201
 H      7   3   2     1.105390155897   109.77023546    71.45992645

---------------------------
INTERNAL COORDINATES (A.U.)
---------------------------
 O      0   0   0     0.000000000000     0.00000000     0.00000000
 O      1   0   0     3.862325748821     0.00000000     0.00000000
 C      2   1   0     2.588845491723   106.03364812     0.00000000
 C      2   1   3     2.597498386426   142.28829637    65.52401521
 C      4   2   1     2.829525669345   103.36348616   176.63553877
 C      5   4   2     2.540330367888   108.19215214    53.45496718
 C      3   2   1     2.812775294744   108.22586155   243.58160973
 H      1   2   3     1.831902060977    82.53635629   253.32923127
 H      3   2   1     2.089717954946   116.58147844    26.94909625
 H      4   2   1     2.130730835812   116.89969133    37.94821965
 H      5   4   2     2.071801320175   125.05455162   246.14494685
 H      6   5   4     1.902500181443   127.67543622   199.44260687
 H      7   3   2     2.071992001171   115.60258803   194.97761201
 H      7   3   2     2.088884665779   109.77023546    71.45992645

---------------------
BASIS SET INFORMATION
---------------------
There are 3 groups of distinct atoms

 Group   1 Type O   : 7s4p1d contracted to 3s2p1d pattern {511/31/1}
 Group   2 Type C   : 7s4p1d contracted to 3s2p1d pattern {511/31/1}
 Group   3 Type H   : 4s1p contracted to 2s1p pattern {31/1}

Atom   0O    basis set group =>   1
Atom   1O    basis set group =>   1
Atom   2C    basis set group =>   2
Atom   3C    basis set group =>   2
Atom   4C    basis set group =>   2
Atom   5C    basis set group =>   2
Atom   6C    basis set group =>   2
Atom   7H    basis set group =>   3
Atom   8H    basis set group =>   3
Atom   9H    basis set group =>   3
Atom  10H    basis set group =>   3
Atom  11H    basis set group =>   3
Atom  12H    basis set group =>   3
Atom  13H    basis set group =>   3
---------------------------------
AUXILIARY/J BASIS SET INFORMATION
---------------------------------
There are 3 groups of distinct atoms

 Group   1 Type O   : 12s5p4d2f1g contracted to 6s4p3d1f1g pattern {711111/2111/211/2/1}
 Group   2 Type C   : 12s5p4d2f1g contracted to 6s4p3d1f1g pattern {711111/2111/211/2/1}
 Group   3 Type H   : 5s2p1d contracted to 3s1p1d pattern {311/2/1}

Atom   0O    basis set group =>   1
Atom   1O    basis set group =>   1
Atom   2C    basis set group =>   2
Atom   3C    basis set group =>   2
Atom   4C    basis set group =>   2
Atom   5C    basis set group =>   2
Atom   6C    basis set group =>   2
Atom   7H    basis set group =>   3
Atom   8H    basis set group =>   3
Atom   9H    basis set group =>   3
Atom  10H    basis set group =>   3
Atom  11H    basis set group =>   3
Atom  12H    basis set group =>   3
Atom  13H    basis set group =>   3
------------------------------------------------------------------------------
                           ORCA GTO INTEGRAL CALCULATION
                           -- RI-GTO INTEGRALS CHOSEN --
------------------------------------------------------------------------------
------------------------------------------------------------------------------
                   ___                                                        
                  /   \      - P O W E R E D   B Y -                         
                 /     \                                                     
                 |  |  |   _    _      __       _____    __    __             
                 |  |  |  | |  | |    /  \     |  _  \  |  |  /  |          
                  \  \/   | |  | |   /    \    | | | |  |  | /  /          
                 / \  \   | |__| |  /  /\  \   | |_| |  |  |/  /          
                |  |  |   |  __  | /  /__\  \  |    /   |      \           
                |  |  |   | |  | | |   __   |  |    \   |  |\   \          
                \     /   | |  | | |  |  |  |  | |\  \  |  | \   \       
                 \___/    |_|  |_| |__|  |__|  |_| \__\ |__|  \__/        
                                                                              
                      - O R C A' S   B I G   F R I E N D -                    
                                      &                                       
                       - I N T E G R A L  F E E D E R -                       
                                                                              
 v1 FN, 2020, v2 2021                                                         
------------------------------------------------------------------------------


Reading SHARK input file 10_1_orca.SHARKINP.tmp ... ok
----------------------
SHARK INTEGRAL PACKAGE
----------------------

Number of atoms                             ...     14
Number of basis functions                   ...    133
Number of shells                            ...     63
Maximum angular momentum                    ...      2
Integral batch strategy                     ... SHARK/LIBINT Hybrid
RI-J (if used) integral strategy            ... SPLIT-RIJ (Revised 2003 algorithm where possible)
Printlevel                                  ...      1
Contraction scheme used                     ... SEGMENTED contraction
Coulomb Range Separation                    ... NOT USED
Exchange Range Separation                   ... NOT USED
Finite Nucleus Model                        ... NOT USED
Auxiliary Coulomb fitting basis             ... AVAILABLE
   # of basis functions in Aux-J            ...    420
   # of shells in Aux-J                     ...    140
   Maximum angular momentum in Aux-J        ...      4
Auxiliary J/K fitting basis                 ... NOT available
Auxiliary Correlation fitting basis         ... NOT available
Auxiliary 'external' fitting basis          ... NOT available
Integral threshold                          ...     2.500000e-11
Primitive cut-off                           ...     2.500000e-12
Primitive pair pre-selection threshold      ...     2.500000e-12

Calculating pre-screening integrals         ... done (  0.0 sec) Dimension = 63
Organizing shell pair data                  ... done (  0.0 sec)
Shell pair information
Total number of shell pairs                 ...      2016
Shell pairs after pre-screening             ...      1950
Total number of primitive shell pairs       ...      7252
Primitive shell pairs kept                  ...      5352
          la=0 lb=0:    606 shell pairs
          la=1 lb=0:    711 shell pairs
          la=1 lb=1:    225 shell pairs
          la=2 lb=0:    236 shell pairs
          la=2 lb=1:    144 shell pairs
          la=2 lb=2:     28 shell pairs

Calculating one electron integrals          ... done (  0.0 sec)
Calculating RI/J V-Matrix + Cholesky decomp.... done (  0.0 sec)
Calculating Nuclear repulsion               ... done (  0.0 sec) ENN=    303.230272035433 Eh

SHARK setup successfully completed in   0.1 seconds

Maximum memory used throughout the entire GTOINT-calculation: 16.8 MB
-------------------------------------------------------------------------------
                                 ORCA SCF
-------------------------------------------------------------------------------

------------
SCF SETTINGS
------------
Hamiltonian:
 Density Functional     Method          .... DFT(GTOs)
 Exchange Functional    Exchange        .... PBE
   PBE kappa parameter   XKappa         ....  0.804000
   PBE mue parameter    XMuePBE         ....  0.219520
 Correlation Functional Correlation     .... PBE
   PBE beta parameter  CBetaPBE         ....  0.066725
 LDA part of GGA corr.  LDAOpt          .... PW91-LDA
 Gradients option       PostSCFGGA      .... off
 Hybrid DFT is turned on
   Fraction HF Exchange ScalHFX         ....  0.250000
   Scaling of DF-GGA-X  ScalDFX         ....  0.750000
   Scaling of DF-GGA-C  ScalDFC         ....  1.000000
   Scaling of DF-LDA-C  ScalLDAC        ....  1.000000
   Perturbative correction              ....  0.000000
   Density functional embedding theory  .... OFF
   NL short-range parameter             ....  6.900000
 RI-approximation to the Coulomb term is turned on
   Number of AuxJ basis functions       .... 420
   RIJ-COSX (HFX calculated with COS-X)).... on


General Settings:
 Integral files         IntName         .... 10_1_orca
 Hartree-Fock type      HFTyp           .... UHF
 Total Charge           Charge          ....    0
 Multiplicity           Mult            ....    2
 Number of Electrons    NEL             ....   53
 Basis Dimension        Dim             ....  133
 Nuclear Repulsion      ENuc            ....    303.2302720354 Eh

Convergence Acceleration:
 DIIS                   CNVDIIS         .... on
   Start iteration      DIISMaxIt       ....    12
   Startup error        DIISStart       ....  0.200000
   # of expansion vecs  DIISMaxEq       ....     5
   Bias factor          DIISBfac        ....   1.050
   Max. coefficient     DIISMaxC        ....  10.000
 Trust-Rad. Augm. Hess. CNVTRAH         .... auto
   Auto Start mean grad. ratio tolernc. ....  1.125000
   Auto Start start iteration           ....    20
   Auto Start num. interpolation iter.  ....    10
   Max. Number of Micro iterations      ....    16
   Max. Number of Macro iterations      .... Maxiter - #DIIS iter
   Number of Davidson start vectors     ....     2
   Converg. threshold I  (grad. norm)   ....   1.000e-05
   Converg. threshold II (energy diff.) ....   1.000e-08
   Grad. Scal. Fac. for Micro threshold ....   0.100
   Minimum threshold for Micro iter.    ....   0.010
   NR start threshold (gradient norm)   ....   0.001
   Initial trust radius                 ....   0.400
   Minimum AH scaling param. (alpha)    ....   1.000
   Maximum AH scaling param. (alpha)    .... 1000.000
   Orbital update algorithm             .... Taylor
   White noise on init. David. guess    .... on
   Maximum white noise                  ....   0.010
   Quad. conv. algorithm                .... NR
 SOSCF                  CNVSOSCF        .... off
 Level Shifting         CNVShift        .... on
   Level shift para.    LevelShift      ....    0.2500
   Turn off err/grad.   ShiftErr        ....    0.0010
 Zerner damping         CNVZerner       .... off
 Static damping         CNVDamp         .... on
   Fraction old density DampFac         ....    0.7000
   Max. Damping (<1)    DampMax         ....    0.9800
   Min. Damping (>=0)   DampMin         ....    0.0000
   Turn off err/grad.   DampErr         ....    0.1000
 Fernandez-Rico         CNVRico         .... off

SCF Procedure:
 Maximum # iterations   MaxIter         ....   250
 SCF integral mode      SCFMode         .... Direct
   Integral package                     .... SHARK and LIBINT hybrid scheme
 Reset frequency        DirectResetFreq ....    20
 Integral Threshold     Thresh          ....  2.500e-11 Eh
 Primitive CutOff       TCut            ....  2.500e-12 Eh

Convergence Tolerance:
 Convergence Check Mode ConvCheckMode   .... Total+1el-Energy
 Convergence forced     ConvForced      .... 0
 Energy Change          TolE            ....  1.000e-08 Eh
 1-El. energy change                    ....  1.000e-05 Eh
 DIIS Error             TolErr          ....  5.000e-07


Diagonalization of the overlap matrix:
Smallest eigenvalue                        ... 6.613e-04
Time for diagonalization                   ...    0.002 sec
Threshold for overlap eigenvalues          ... 1.000e-08
Number of eigenvalues below threshold      ... 0
Time for construction of square roots      ...    0.001 sec
Total time needed                          ...    0.003 sec

Time for model grid setup =    0.121 sec

------------------------------
INITIAL GUESS: MODEL POTENTIAL
------------------------------
Loading Hartree-Fock densities                     ... done
Calculating cut-offs                               ... done
Initializing the effective Hamiltonian             ... done
Setting up the integral package (SHARK)            ... done
Starting the Coulomb interaction                   ... done (   0.1 sec)
Reading the grid                                   ... done
Mapping shells                                     ... done
Starting the XC term evaluation                    ... done (   0.1 sec)
  promolecular density results
     # of electrons  =     52.997572954
     EX              =    -43.926813594
     EC              =     -1.760972990
     EX+EC           =    -45.687786584
Transforming the Hamiltonian                       ... done (   0.0 sec)
Diagonalizing the Hamiltonian                      ... done (   0.0 sec)
Back transforming the eigenvectors                 ... done (   0.0 sec)
Now organizing SCF variables                       ... done
                      ------------------
                      INITIAL GUESS DONE (   0.3 sec)
                      ------------------
-------------------
DFT GRID GENERATION
-------------------

General Integration Accuracy     IntAcc      ... 4.388
Radial Grid Type                 RadialGrid  ... OptM3 with GC (2021)
Angular Grid (max. ang.)         AngularGrid ... 4 (Lebedev-302)
Angular grid pruning method      GridPruning ... 4 (adaptive)
Weight generation scheme         WeightScheme... Becke
Basis function cutoff            BFCut       ... 1.0000e-11
Integration weight cutoff        WCut        ... 1.0000e-14
Angular grids for H and He will be reduced by one unit
Partially contracted basis set               ... off
Rotationally invariant grid construction     ... off

Total number of grid points                  ...    64868
Total number of batches                      ...     1019
Average number of points per batch           ...       63
Average number of grid points per atom       ...     4633
Time for grid setup =    0.492 sec

--------------------
COSX GRID GENERATION
--------------------

GRIDX 1
-------
General Integration Accuracy     IntAcc      ... 3.816
Radial Grid Type                 RadialGrid  ... OptM3 with GC (2021)
Angular Grid (max. ang.)         AngularGrid ... 1 (Lebedev-50)
Angular grid pruning method      GridPruning ... 4 (adaptive)
Weight generation scheme         WeightScheme... Becke
Basis function cutoff            BFCut       ... 1.0000e-11
Integration weight cutoff        WCut        ... 1.0000e-14
Angular grids for H and He will be reduced by one unit
Partially contracted basis set               ... on
Rotationally invariant grid construction     ... off

Total number of grid points                  ...     8300
Total number of batches                      ...      137
Average number of points per batch           ...       60
Average number of grid points per atom       ...      593
UseSFitting                                  ... on

GRIDX 2
-------
General Integration Accuracy     IntAcc      ... 4.020
Radial Grid Type                 RadialGrid  ... OptM3 with GC (2021)
Angular Grid (max. ang.)         AngularGrid ... 2 (Lebedev-110)
Angular grid pruning method      GridPruning ... 4 (adaptive)
Weight generation scheme         WeightScheme... Becke
Basis function cutoff            BFCut       ... 1.0000e-11
Integration weight cutoff        WCut        ... 1.0000e-14
Angular grids for H and He will be reduced by one unit
Partially contracted basis set               ... on
Rotationally invariant grid construction     ... off

Total number of grid points                  ...    18034
Total number of batches                      ...      289
Average number of points per batch           ...       62
Average number of grid points per atom       ...     1288
UseSFitting                                  ... on

GRIDX 3
-------
General Integration Accuracy     IntAcc      ... 4.338
Radial Grid Type                 RadialGrid  ... OptM3 with GC (2021)
Angular Grid (max. ang.)         AngularGrid ... 3 (Lebedev-194)
Angular grid pruning method      GridPruning ... 4 (adaptive)
Weight generation scheme         WeightScheme... Becke
Basis function cutoff            BFCut       ... 1.0000e-11
Integration weight cutoff        WCut        ... 1.0000e-14
Angular grids for H and He will be reduced by one unit
Partially contracted basis set               ... on
Rotationally invariant grid construction     ... off

Total number of grid points                  ...    39635
Total number of batches                      ...      625
Average number of points per batch           ...       63
Average number of grid points per atom       ...     2831
UseSFitting                                  ... on

Time for X-Grid setup             =    0.558 sec

--------------
SCF ITERATIONS
--------------
ITER       Energy         Delta-E        Max-DP      RMS-DP      [F,P]     Damp
               ***  Starting incremental Fock matrix formation  ***
  0   -344.1257359344   0.000000000000 0.05676288  0.00145952  0.1601348 0.7000
  1   -344.2217897620  -0.096053827658 0.04288029  0.00098129  0.0607935 0.7000
                               ***Turning on DIIS***
  2   -344.2616483606  -0.039858598563 0.09182226  0.00173049  0.0196631 0.0000
  3   -344.3324291051  -0.070780744543 0.03141572  0.00083968  0.0575265 0.0000
  4   -344.3482027912  -0.015773686111 0.00869031  0.00035870  0.0085538 0.0000
  5   -344.3498903225  -0.001687531215 0.00776832  0.00022984  0.0075610 0.0000
  6   -344.3506229812  -0.000732658737 0.00399684  0.00010240  0.0043117 0.0000
  7   -344.3508641417  -0.000241160495 0.00212154  0.00005933  0.0021257 0.0000
  8   -344.3509496450  -0.000085503347 0.00161000  0.00003738  0.0015643 0.0000
  9   -344.3509875688  -0.000037923806 0.00235411  0.00005426  0.0006268 0.0000
               *** Restarting incremental Fock matrix formation ***
                                   *** Resetting DIIS ***
 10   -344.3510111088  -0.000023539980 0.00095240  0.00001720  0.0003993 0.0000
 11   -344.3510153228  -0.000004213939 0.00034312  0.00000738  0.0003632 0.0000
 12   -344.3510171264  -0.000001803631 0.00121017  0.00001901  0.0003412 0.0000
 13   -344.3510211140  -0.000003987584 0.00117248  0.00001775  0.0002647 0.0000
 14   -344.3510236507  -0.000002536686 0.00114699  0.00001781  0.0001855 0.0000
 15   -344.3510250794  -0.000001428760 0.00042582  0.00000626  0.0000962 0.0000
 16   -344.3510253282  -0.000000248744 0.00023384  0.00000365  0.0000572 0.0000
 17   -344.3510254157  -0.000000087499 0.00014908  0.00000237  0.0000349 0.0000
 18   -344.3510254582  -0.000000042503 0.00012979  0.00000196  0.0000234 0.0000
 19   -344.3510254769  -0.000000018717 0.00009740  0.00000159  0.0000199 0.0000
 20   -344.3510254830  -0.000000006082 0.00004049  0.00000077  0.0000119 0.0000
 21   -344.3510254866  -0.000000003594 0.00002861  0.00000061  0.0000082 0.0000
 22   -344.3510254899  -0.000000003310 0.00001230  0.00000032  0.0000063 0.0000
 23   -344.3510254856   0.000000004282 0.00000842  0.00000020  0.0000061 0.0000
                 **** Energy Check signals convergence ****

               *****************************************************
               *                     SUCCESS                       *
               *           SCF CONVERGED AFTER  24 CYCLES          *
               *****************************************************

Old exchange energy                            =    -11.209143839 Eh
New exchange energy                            =    -11.209123784 Eh
Exchange energy change after final integration =      0.000020055 Eh
Total energy after final integration           =   -344.351005436 Eh
Final COS-X integration done in                =     5.206 sec

----------------
TOTAL SCF ENERGY
----------------

Total Energy       :         -344.35100544 Eh           -9370.26723 eV

Components:
Nuclear Repulsion  :          303.23027204 Eh            8251.31519 eV
Electronic Energy  :         -647.58127747 Eh          -17621.58242 eV
One Electron Energy:        -1069.51986759 Eh          -29103.11517 eV
Two Electron Energy:          421.93859012 Eh           11481.53275 eV
Max COSX asymmetry :            0.00000086 Eh               0.00002 eV

Virial components:
Potential Energy   :         -686.26276236 Eh          -18674.15914 eV
Kinetic Energy     :          341.91175692 Eh            9303.89191 eV
Virial Ratio       :            2.00713415


DFT components:
N(Alpha)           :       27.000017977943 electrons
N(Beta)            :       26.000019892946 electrons
N(Total)           :       53.000037870889 electrons
E(X)               :      -33.535097090314 Eh       
E(C)               :       -1.775789295270 Eh       
E(XC)              :      -35.310886385584 Eh       
DFET-embed. en.    :        0.000000000000 Eh       

---------------
SCF CONVERGENCE
---------------

  Last Energy change         ...   -5.1427e-09  Tolerance :   1.0000e-08
  Last MAX-Density change    ...    0.0000e+00  Tolerance :   1.0000e-07
  Last RMS-Density change    ...    0.0000e+00  Tolerance :   5.0000e-09
  Last DIIS Error            ...    6.2278e-06  Tolerance :   5.0000e-07

             **** THE GBW FILE WAS UPDATED (10_1_orca.gbw) ****
             **** DENSITY 10_1_orca.scfp WAS UPDATED ****
             **** ENERGY FILE WAS UPDATED (10_1_orca.en.tmp) ****
----------------------
UHF SPIN CONTAMINATION
----------------------

Warning: in a DFT calculation there is little theoretical justification to 
         calculate <S**2> as in Hartree-Fock theory. We will do it anyways
         but you should keep in mind that the values have only limited relevance

Expectation value of <S**2>     :     0.753216
Ideal value S*(S+1) for S=0.5   :     0.750000
Deviation                       :     0.003216

             **** THE GBW FILE WAS UPDATED (10_1_orca.gbw) ****
             **** DENSITY 10_1_orca.scfp WAS UPDATED ****
----------------
ORBITAL ENERGIES
----------------
                 SPIN UP ORBITALS
  NO   OCC          E(Eh)            E(eV) 
   0   1.0000     -19.236636      -523.4555 
   1   1.0000     -19.208252      -522.6831 
   2   1.0000     -10.295576      -280.1569 
   3   1.0000     -10.289941      -280.0035 
   4   1.0000     -10.245311      -278.7891 
   5   1.0000     -10.240738      -278.6647 
   6   1.0000     -10.239963      -278.6435 
   7   1.0000      -1.163636       -31.6641 
   8   1.0000      -0.967810       -26.3355 
   9   1.0000      -0.839312       -22.8388 
  10   1.0000      -0.746444       -20.3118 
  11   1.0000      -0.686616       -18.6838 
  12   1.0000      -0.606776       -16.5112 
  13   1.0000      -0.583556       -15.8794 
  14   1.0000      -0.567665       -15.4469 
  15   1.0000      -0.485421       -13.2090 
  16   1.0000      -0.472655       -12.8616 
  17   1.0000      -0.448861       -12.2141 
  18   1.0000      -0.430911       -11.7257 
  19   1.0000      -0.421099       -11.4587 
  20   1.0000      -0.399291       -10.8653 
  21   1.0000      -0.371132       -10.0990 
  22   1.0000      -0.365292        -9.9401 
  23   1.0000      -0.324948        -8.8423 
  24   1.0000      -0.299507        -8.1500 
  25   1.0000      -0.288484        -7.8501 
  26   1.0000      -0.252728        -6.8771 
  27   0.0000      -0.002516        -0.0685 
  28   0.0000       0.067100         1.8259 
  29   0.0000       0.100752         2.7416 
  30   0.0000       0.109364         2.9760 
  31   0.0000       0.119382         3.2486 
  32   0.0000       0.129413         3.5215 
  33   0.0000       0.137907         3.7526 
  34   0.0000       0.145960         3.9718 
  35   0.0000       0.158924         4.3245 
  36   0.0000       0.179665         4.8889 
  37   0.0000       0.196930         5.3587 
  38   0.0000       0.229335         6.2405 
  39   0.0000       0.313488         8.5304 
  40   0.0000       0.322129         8.7656 
  41   0.0000       0.395340        10.7577 
  42   0.0000       0.402376        10.9492 
  43   0.0000       0.461289        12.5523 
  44   0.0000       0.465203        12.6588 
  45   0.0000       0.484063        13.1720 
  46   0.0000       0.507299        13.8043 
  47   0.0000       0.516146        14.0450 
  48   0.0000       0.551014        14.9939 
  49   0.0000       0.572917        15.5899 
  50   0.0000       0.576315        15.6823 
  51   0.0000       0.600275        16.3343 
  52   0.0000       0.618120        16.8199 
  53   0.0000       0.629133        17.1196 
  54   0.0000       0.647965        17.6320 
  55   0.0000       0.663966        18.0674 
  56   0.0000       0.668885        18.2013 
  57   0.0000       0.684942        18.6382 
  58   0.0000       0.689749        18.7690 
  59   0.0000       0.700948        19.0738 
  60   0.0000       0.713808        19.4237 
  61   0.0000       0.734986        20.0000 
  62   0.0000       0.764252        20.7964 
  63   0.0000       0.782697        21.2983 
  64   0.0000       0.834210        22.7000 
  65   0.0000       0.901041        24.5186 
  66   0.0000       0.920685        25.0531 
  67   0.0000       0.956551        26.0291 
  68   0.0000       0.989928        26.9373 
  69   0.0000       1.012727        27.5577 
  70   0.0000       1.045509        28.4497 
  71   0.0000       1.061220        28.8773 
  72   0.0000       1.109471        30.1902 
  73   0.0000       1.136021        30.9127 
  74   0.0000       1.223632        33.2967 
  75   0.0000       1.230860        33.4934 
  76   0.0000       1.296199        35.2714 
  77   0.0000       1.360112        37.0105 
  78   0.0000       1.464558        39.8526 
  79   0.0000       1.477705        40.2104 
  80   0.0000       1.492139        40.6032 
  81   0.0000       1.535589        41.7855 
  82   0.0000       1.544689        42.0331 
  83   0.0000       1.588574        43.2273 
  84   0.0000       1.595205        43.4077 
  85   0.0000       1.631035        44.3827 
  86   0.0000       1.665965        45.3332 
  87   0.0000       1.685662        45.8692 
  88   0.0000       1.722087        46.8604 
  89   0.0000       1.750564        47.6353 
  90   0.0000       1.771585        48.2073 
  91   0.0000       1.782682        48.5093 
  92   0.0000       1.824260        49.6406 
  93   0.0000       1.856884        50.5284 
  94   0.0000       1.865543        50.7640 
  95   0.0000       1.878451        51.1152 
  96   0.0000       1.937038        52.7095 
  97   0.0000       1.971892        53.6579 
  98   0.0000       2.013791        54.7981 
  99   0.0000       2.027276        55.1650 
 100   0.0000       2.056627        55.9637 
 101   0.0000       2.083072        56.6833 
 102   0.0000       2.102461        57.2109 
 103   0.0000       2.178329        59.2753 
 104   0.0000       2.184582        59.4455 
 105   0.0000       2.240787        60.9749 
 106   0.0000       2.273437        61.8634 
 107   0.0000       2.273834        61.8742 
 108   0.0000       2.307772        62.7977 
 109   0.0000       2.387318        64.9622 
 110   0.0000       2.444174        66.5093 
 111   0.0000       2.515686        68.4553 
 112   0.0000       2.557657        69.5974 
 113   0.0000       2.582875        70.2836 
 114   0.0000       2.637702        71.7755 
 115   0.0000       2.663656        72.4818 
 116   0.0000       2.695751        73.3551 
 117   0.0000       2.759210        75.0819 
 118   0.0000       2.789973        75.9190 
 119   0.0000       2.810007        76.4642 
 120   0.0000       2.840820        77.3026 
 121   0.0000       2.894307        78.7581 
 122   0.0000       2.911719        79.2319 
 123   0.0000       2.963379        80.6376 
 124   0.0000       3.012099        81.9634 
 125   0.0000       3.028250        82.4029 
 126   0.0000       3.074164        83.6523 
 127   0.0000       3.167266        86.1857 
 128   0.0000       3.198540        87.0367 
 129   0.0000       3.397216        92.4429 
 130   0.0000       3.446643        93.7879 
 131   0.0000       3.523802        95.8875 
 132   0.0000       3.755693       102.1976 

                 SPIN DOWN ORBITALS
  NO   OCC          E(Eh)            E(eV) 
   0   1.0000     -19.232498      -523.3429 
   1   1.0000     -19.182586      -521.9847 
   2   1.0000     -10.295115      -280.1443 
   3   1.0000     -10.290125      -280.0085 
   4   1.0000     -10.245320      -278.7893 
   5   1.0000     -10.240782      -278.6658 
   6   1.0000     -10.239596      -278.6336 
   7   1.0000      -1.158715       -31.5302 
   8   1.0000      -0.900726       -24.5100 
   9   1.0000      -0.836857       -22.7720 
  10   1.0000      -0.746189       -20.3048 
  11   1.0000      -0.682676       -18.5766 
  12   1.0000      -0.605755       -16.4834 
  13   1.0000      -0.582596       -15.8532 
  14   1.0000      -0.562493       -15.3062 
  15   1.0000      -0.477861       -13.0033 
  16   1.0000      -0.471183       -12.8215 
  17   1.0000      -0.442159       -12.0318 
  18   1.0000      -0.422026       -11.4839 
  19   1.0000      -0.405322       -11.0294 
  20   1.0000      -0.396488       -10.7890 
  21   1.0000      -0.369754       -10.0615 
  22   1.0000      -0.338593        -9.2136 
  23   1.0000      -0.301262        -8.1977 
  24   1.0000      -0.266635        -7.2555 
  25   1.0000      -0.260367        -7.0850 
  26   0.0000      -0.067946        -1.8489 
  27   0.0000       0.001116         0.0304 
  28   0.0000       0.069341         1.8869 
  29   0.0000       0.102094         2.7781 
  30   0.0000       0.111276         3.0280 
  31   0.0000       0.120190         3.2705 
  32   0.0000       0.131748         3.5851 
  33   0.0000       0.138345         3.7645 
  34   0.0000       0.146723         3.9925 
  35   0.0000       0.159809         4.3486 
  36   0.0000       0.180982         4.9248 
  37   0.0000       0.199713         5.4345 
  38   0.0000       0.230753         6.2791 
  39   0.0000       0.313872         8.5409 
  40   0.0000       0.322764         8.7829 
  41   0.0000       0.395760        10.7692 
  42   0.0000       0.402557        10.9541 
  43   0.0000       0.461773        12.5655 
  44   0.0000       0.466475        12.6934 
  45   0.0000       0.485265        13.2047 
  46   0.0000       0.508736        13.8434 
  47   0.0000       0.517381        14.0787 
  48   0.0000       0.553004        15.0480 
  49   0.0000       0.574192        15.6246 
  50   0.0000       0.578886        15.7523 
  51   0.0000       0.600495        16.3403 
  52   0.0000       0.618629        16.8338 
  53   0.0000       0.632188        17.2027 
  54   0.0000       0.649089        17.6626 
  55   0.0000       0.667110        18.1530 
  56   0.0000       0.673883        18.3373 
  57   0.0000       0.685817        18.6620 
  58   0.0000       0.689996        18.7757 
  59   0.0000       0.701311        19.0837 
  60   0.0000       0.714067        19.4308 
  61   0.0000       0.735484        20.0135 
  62   0.0000       0.765144        20.8206 
  63   0.0000       0.783169        21.3111 
  64   0.0000       0.834543        22.7091 
  65   0.0000       0.909771        24.7561 
  66   0.0000       0.930927        25.3318 
  67   0.0000       0.982278        26.7291 
  68   0.0000       1.009545        27.4711 
  69   0.0000       1.019843        27.7513 
  70   0.0000       1.053848        28.6767 
  71   0.0000       1.092644        29.7324 
  72   0.0000       1.119432        30.4613 
  73   0.0000       1.147065        31.2132 
  74   0.0000       1.226337        33.3703 
  75   0.0000       1.233700        33.5707 
  76   0.0000       1.308005        35.5926 
  77   0.0000       1.360841        37.0304 
  78   0.0000       1.463331        39.8193 
  79   0.0000       1.484946        40.4074 
  80   0.0000       1.498999        40.7898 
  81   0.0000       1.539956        41.9043 
  82   0.0000       1.549631        42.1676 
  83   0.0000       1.592917        43.3455 
  84   0.0000       1.598720        43.5034 
  85   0.0000       1.632049        44.4103 
  86   0.0000       1.667170        45.3660 
  87   0.0000       1.687530        45.9200 
  88   0.0000       1.723285        46.8930 
  89   0.0000       1.751361        47.6570 
  90   0.0000       1.772200        48.2240 
  91   0.0000       1.785041        48.5734 
  92   0.0000       1.826316        49.6966 
  93   0.0000       1.857747        50.5519 
  94   0.0000       1.867596        50.8199 
  95   0.0000       1.879089        51.1326 
  96   0.0000       1.937616        52.7252 
  97   0.0000       1.973367        53.6980 
  98   0.0000       2.014112        54.8068 
  99   0.0000       2.028216        55.1906 
 100   0.0000       2.058148        56.0051 
 101   0.0000       2.084047        56.7098 
 102   0.0000       2.103714        57.2450 
 103   0.0000       2.179087        59.2960 
 104   0.0000       2.184946        59.4554 
 105   0.0000       2.256017        61.3893 
 106   0.0000       2.274989        61.9056 
 107   0.0000       2.275516        61.9199 
 108   0.0000       2.309335        62.8402 
 109   0.0000       2.388063        64.9825 
 110   0.0000       2.444638        66.5220 
 111   0.0000       2.516275        68.4713 
 112   0.0000       2.558804        69.6286 
 113   0.0000       2.585236        70.3478 
 114   0.0000       2.638554        71.7987 
 115   0.0000       2.691768        73.2467 
 116   0.0000       2.741752        74.6069 
 117   0.0000       2.786870        75.8346 
 118   0.0000       2.808435        76.4214 
 119   0.0000       2.830709        77.0275 
 120   0.0000       2.846241        77.4501 
 121   0.0000       2.900926        78.9382 
 122   0.0000       2.918900        79.4273 
 123   0.0000       2.998332        81.5888 
 124   0.0000       3.023030        82.2608 
 125   0.0000       3.068322        83.4933 
 126   0.0000       3.074606        83.6643 
 127   0.0000       3.174644        86.3864 
 128   0.0000       3.200952        87.1023 
 129   0.0000       3.402032        92.5740 
 130   0.0000       3.448797        93.8465 
 131   0.0000       3.527347        95.9840 
 132   0.0000       3.778674       102.8229 

                    ********************************
                    * MULLIKEN POPULATION ANALYSIS *
                    ********************************

--------------------------------------------
MULLIKEN ATOMIC CHARGES AND SPIN POPULATIONS
--------------------------------------------
   0 O :   -0.235195    0.919818
   1 O :   -0.274853    0.074919
   2 C :    0.043877   -0.008931
   3 C :    0.038338    0.017910
   4 C :    0.020252   -0.019465
   5 C :   -0.084627    0.037225
   6 C :    0.056611   -0.001392
   7 H :    0.163901   -0.023174
   8 H :    0.052682    0.002296
   9 H :    0.051173    0.001164
  10 H :    0.036512    0.001089
  11 H :   -0.003559   -0.001649
  12 H :    0.063962    0.000014
  13 H :    0.070926    0.000175
Sum of atomic charges         :    0.0000000
Sum of atomic spin populations:    1.0000000

-----------------------------------------------------
MULLIKEN REDUCED ORBITAL CHARGES AND SPIN POPULATIONS
-----------------------------------------------------
CHARGE
  0 O s       :     3.863127  s :     3.863127
      pz      :     1.676626  p :     4.364952
      px      :     1.208292
      py      :     1.480034
      dz2     :     0.000556  d :     0.007116
      dxz     :     0.000366
      dyz     :     0.002951
      dx2y2   :     0.002640
      dxy     :     0.000603
  1 O s       :     3.843487  s :     3.843487
      pz      :     1.338001  p :     4.407144
      px      :     1.589353
      py      :     1.479790
      dz2     :     0.006975  d :     0.024223
      dxz     :     0.003871
      dyz     :     0.006008
      dx2y2   :     0.003280
      dxy     :     0.004089
  2 C s       :     3.151788  s :     3.151788
      pz      :     0.767993  p :     2.723004
      px      :     0.986925
      py      :     0.968087
      dz2     :     0.024981  d :     0.081331
      dxz     :     0.018435
      dyz     :     0.020141
      dx2y2   :     0.007350
      dxy     :     0.010424
  3 C s       :     3.171517  s :     3.171517
      pz      :     0.953353  p :     2.710194
      px      :     0.919486
      py      :     0.837355
      dz2     :     0.009539  d :     0.079950
      dxz     :     0.013428
      dyz     :     0.015141
      dx2y2   :     0.021265
      dxy     :     0.020577
  4 C s       :     3.157620  s :     3.157620
      pz      :     0.976369  p :     2.788318
      px      :     0.856669
      py      :     0.955279
      dz2     :     0.005587  d :     0.033809
      dxz     :     0.007340
      dyz     :     0.004882
      dx2y2   :     0.007763
      dxy     :     0.008238
  5 C s       :     3.212584  s :     3.212584
      pz      :     0.976824  p :     2.837668
      px      :     0.945169
      py      :     0.915675
      dz2     :     0.007201  d :     0.034375
      dxz     :     0.005398
      dyz     :     0.004974
      dx2y2   :     0.007279
      dxy     :     0.009523
  6 C s       :     2.974791  s :     2.974791
      pz      :     0.980498  p :     2.934692
      px      :     0.935533
      py      :     1.018660
      dz2     :     0.007882  d :     0.033907
      dxz     :     0.006653
      dyz     :     0.005292
      dx2y2   :     0.006820
      dxy     :     0.007260
  7 H s       :     0.768477  s :     0.768477
      pz      :     0.023005  p :     0.067622
      px      :     0.013065
      py      :     0.031551
  8 H s       :     0.925596  s :     0.925596
      pz      :     0.002569  p :     0.021722
      px      :     0.013888
      py      :     0.005265
  9 H s       :     0.927907  s :     0.927907
      pz      :     0.006020  p :     0.020919
      px      :     0.002492
      py      :     0.012408
 10 H s       :     0.939610  s :     0.939610
      pz      :     0.007728  p :     0.023878
      px      :     0.011583
      py      :     0.004566
 11 H s       :     0.975642  s :     0.975642
      pz      :     0.005931  p :     0.027917
      px      :     0.009820
      py      :     0.012165
 12 H s       :     0.912532  s :     0.912532
      pz      :     0.013354  p :     0.023506
      px      :     0.004753
      py      :     0.005399
 13 H s       :     0.906078  s :     0.906078
      pz      :     0.004305  p :     0.022996
      px      :     0.006102
      py      :     0.012589

SPIN
  0 O s       :     0.012110  s :     0.012110
      pz      :     0.116757  p :     0.907405
      px      :     0.758424
      py      :     0.032225
      dz2     :     0.000036  d :     0.000303
      dxz     :     0.000189
      dyz     :    -0.000009
      dx2y2   :    -0.000083
      dxy     :     0.000171
  1 O s       :     0.014199  s :     0.014199
      pz      :     0.014685  p :     0.059981
      px      :     0.040987
      py      :     0.004308
      dz2     :    -0.000121  d :     0.000739
      dxz     :     0.000348
      dyz     :     0.000025
      dx2y2   :     0.000094
      dxy     :     0.000392
  2 C s       :    -0.002223  s :    -0.002223
      pz      :    -0.004760  p :    -0.007422
      px      :    -0.001592
      py      :    -0.001070
      dz2     :     0.000064  d :     0.000715
      dxz     :     0.000612
      dyz     :    -0.000042
      dx2y2   :     0.000044
      dxy     :     0.000037
  3 C s       :     0.001552  s :     0.001552
      pz      :     0.008791  p :     0.015641
      px      :     0.002783
      py      :     0.004066
      dz2     :     0.000019  d :     0.000717
      dxz     :    -0.000058
      dyz     :    -0.000061
      dx2y2   :     0.000898
      dxy     :    -0.000081
  4 C s       :    -0.003090  s :    -0.003090
      pz      :    -0.011228  p :    -0.016775
      px      :     0.002051
      py      :    -0.007598
      dz2     :     0.000114  d :     0.000400
      dxz     :     0.000081
      dyz     :     0.000050
      dx2y2   :     0.000091
      dxy     :     0.000064
  5 C s       :     0.004990  s :     0.004990
      pz      :     0.017711  p :     0.032405
      px      :     0.004933
      py      :     0.009760
      dz2     :    -0.000069  d :    -0.000169
      dxz     :    -0.000023
      dyz     :    -0.000053
      dx2y2   :    -0.000033
      dxy     :     0.000008
  6 C s       :    -0.000683  s :    -0.000683
      pz      :    -0.000079  p :    -0.000778
      px      :    -0.000994
      py      :     0.000295
      dz2     :     0.000007  d :     0.000069
      dxz     :     0.000021
      dyz     :     0.000009
      dx2y2   :     0.000006
      dxy     :     0.000026
  7 H s       :    -0.028764  s :    -0.028764
      pz      :     0.000626  p :     0.005589
      px      :     0.005049
      py      :    -0.000087
  8 H s       :     0.002345  s :     0.002345
      pz      :    -0.000023  p :    -0.000049
      px      :    -0.000026
      py      :    -0.000000
  9 H s       :     0.001131  s :     0.001131
      pz      :     0.000004  p :     0.000033
      px      :    -0.000005
      py      :     0.000034
 10 H s       :     0.001180  s :     0.001180
      pz      :    -0.000035  p :    -0.000091
      px      :    -0.000012
      py      :    -0.000044
 11 H s       :    -0.001905  s :    -0.001905
      pz      :     0.000139  p :     0.000256
      px      :     0.000058
      py      :     0.000059
 12 H s       :    -0.000004  s :    -0.000004
      pz      :    -0.000003  p :     0.000018
      px      :     0.000018
      py      :     0.000004
 13 H s       :     0.000183  s :     0.000183
      pz      :    -0.000002  p :    -0.000007
      px      :    -0.000004
      py      :    -0.000001


                     *******************************
                     * LOEWDIN POPULATION ANALYSIS *
                     *******************************

-------------------------------------------
LOEWDIN ATOMIC CHARGES AND SPIN POPULATIONS
-------------------------------------------
   0 O :   -0.140584    0.877006
   1 O :   -0.071379    0.089948
   2 C :    0.038395   -0.003796
   3 C :    0.022195    0.015752
   4 C :   -0.048214   -0.013256
   5 C :    0.011102    0.028471
   6 C :   -0.041609   -0.000128
   7 H :    0.044543    0.002770
   8 H :    0.027640    0.001268
   9 H :    0.028909    0.001055
  10 H :    0.032189    0.000253
  11 H :    0.007727    0.000365
  12 H :    0.041379    0.000188
  13 H :    0.047706    0.000104

----------------------------------------------------
LOEWDIN REDUCED ORBITAL CHARGES AND SPIN POPULATIONS
----------------------------------------------------
CHARGE
  0 O s       :     3.686174  s :     3.686174
      pz      :     1.683260  p :     4.441673
      px      :     1.205392
      py      :     1.553022
      dz2     :     0.000503  d :     0.012736
      dxz     :     0.000502
      dyz     :     0.005964
      dx2y2   :     0.005124
      dxy     :     0.000642
  1 O s       :     3.510141  s :     3.510141
      pz      :     1.408527  p :     4.518988
      px      :     1.573281
      py      :     1.537180
      dz2     :     0.011581  d :     0.042250
      dxz     :     0.006214
      dyz     :     0.011763
      dx2y2   :     0.005204
      dxy     :     0.007489
  2 C s       :     2.834185  s :     2.834185
      pz      :     0.869170  p :     2.944914
      px      :     1.053608
      py      :     1.022136
      dz2     :     0.051639  d :     0.182505
      dxz     :     0.043854
      dyz     :     0.046055
      dx2y2   :     0.015956
      dxy     :     0.025000
  3 C s       :     2.848992  s :     2.848992
      pz      :     1.013307  p :     2.950293
      px      :     0.987226
      py      :     0.949760
      dz2     :     0.021097  d :     0.178520
      dxz     :     0.030128
      dyz     :     0.033244
      dx2y2   :     0.050357
      dxy     :     0.043693
  4 C s       :     2.886108  s :     2.886108
      pz      :     1.021570  p :     3.075095
      px      :     1.015892
      py      :     1.037633
      dz2     :     0.011735  d :     0.087011
      dxz     :     0.018990
      dyz     :     0.013706
      dx2y2   :     0.021161
      dxy     :     0.021419
  5 C s       :     2.870287  s :     2.870287
      pz      :     0.994647  p :     3.032759
      px      :     0.995622
      py      :     1.042489
      dz2     :     0.014567  d :     0.085852
      dxz     :     0.013086
      dyz     :     0.014448
      dx2y2   :     0.020645
      dxy     :     0.023106
  6 C s       :     2.848263  s :     2.848263
      pz      :     1.040646  p :     3.106769
      px      :     1.010222
      py      :     1.055901
      dz2     :     0.020656  d :     0.086577
      dxz     :     0.017032
      dyz     :     0.013191
      dx2y2   :     0.017806
      dxy     :     0.017893
  7 H s       :     0.771810  s :     0.771810
      pz      :     0.062329  p :     0.183647
      px      :     0.033797
      py      :     0.087521
  8 H s       :     0.904067  s :     0.904067
      pz      :     0.010679  p :     0.068293
      px      :     0.040082
      py      :     0.017532
  9 H s       :     0.907287  s :     0.907287
      pz      :     0.018427  p :     0.063804
      px      :     0.010128
      py      :     0.035248
 10 H s       :     0.897728  s :     0.897728
      pz      :     0.022151  p :     0.070082
      px      :     0.034231
      py      :     0.013700
 11 H s       :     0.905343  s :     0.905343
      pz      :     0.020453  p :     0.086930
      px      :     0.031907
      py      :     0.034569
 12 H s       :     0.889971  s :     0.889971
      pz      :     0.038698  p :     0.068650
      px      :     0.014129
      py      :     0.015823
 13 H s       :     0.885027  s :     0.885027
      pz      :     0.012355  p :     0.067267
      px      :     0.018711
      py      :     0.036202

SPIN
  0 O s       :     0.009873  s :     0.009873
      pz      :     0.110994  p :     0.867058
      px      :     0.731279
      py      :     0.024786
      dz2     :    -0.000008  d :     0.000075
      dxz     :     0.000164
      dyz     :    -0.000218
      dx2y2   :     0.000122
      dxy     :     0.000015
  1 O s       :     0.018227  s :     0.018227
      pz      :     0.016251  p :     0.070499
      px      :     0.050618
      py      :     0.003629
      dz2     :    -0.000044  d :     0.001223
      dxz     :     0.000375
      dyz     :     0.000069
      dx2y2   :     0.000131
      dxy     :     0.000693
  2 C s       :    -0.000807  s :    -0.000807
      pz      :    -0.002900  p :    -0.004841
      px      :    -0.000513
      py      :    -0.001428
      dz2     :     0.000353  d :     0.001851
      dxz     :     0.001405
      dyz     :    -0.000106
      dx2y2   :     0.000133
      dxy     :     0.000066
  3 C s       :     0.001023  s :     0.001023
      pz      :     0.007823  p :     0.013779
      px      :     0.001952
      py      :     0.004004
      dz2     :    -0.000061  d :     0.000950
      dxz     :    -0.000092
      dyz     :    -0.000114
      dx2y2   :     0.001469
      dxy     :    -0.000254
  4 C s       :    -0.000199  s :    -0.000199
      pz      :    -0.008753  p :    -0.014064
      px      :     0.000774
      py      :    -0.006085
      dz2     :     0.000228  d :     0.001007
      dxz     :     0.000170
      dyz     :     0.000106
      dx2y2   :     0.000369
      dxy     :     0.000134
  5 C s       :     0.000986  s :     0.000986
      pz      :     0.015823  p :     0.027872
      px      :     0.004605
      py      :     0.007443
      dz2     :    -0.000176  d :    -0.000387
      dxz     :    -0.000037
      dyz     :    -0.000079
      dx2y2   :    -0.000081
      dxy     :    -0.000014
  6 C s       :    -0.000076  s :    -0.000076
      pz      :    -0.000055  p :    -0.000211
      px      :    -0.000343
      py      :     0.000187
      dz2     :     0.000018  d :     0.000158
      dxz     :     0.000059
      dyz     :     0.000023
      dx2y2   :     0.000006
      dxy     :     0.000052
  7 H s       :    -0.019198  s :    -0.019198
      pz      :     0.003770  p :     0.021968
      px      :     0.016167
      py      :     0.002031
  8 H s       :     0.001439  s :     0.001439
      pz      :    -0.000074  p :    -0.000171
      px      :    -0.000042
      py      :    -0.000055
  9 H s       :     0.000815  s :     0.000815
      pz      :     0.000169  p :     0.000241
      px      :     0.000032
      py      :     0.000040
 10 H s       :     0.000602  s :     0.000602
      pz      :    -0.000186  p :    -0.000349
      px      :    -0.000008
      py      :    -0.000155
 11 H s       :    -0.000692  s :    -0.000692
      pz      :     0.000547  p :     0.001058
      px      :     0.000215
      py      :     0.000295
 12 H s       :     0.000148  s :     0.000148
      pz      :    -0.000013  p :     0.000040
      px      :     0.000041
      py      :     0.000011
 13 H s       :     0.000127  s :     0.000127
      pz      :    -0.000002  p :    -0.000023
      px      :    -0.000017
      py      :    -0.000003


                      *****************************
                      * MAYER POPULATION ANALYSIS *
                      *****************************

  NA   - Mulliken gross atomic population
  ZA   - Total nuclear charge
  QA   - Mulliken gross atomic charge
  VA   - Mayer's total valence
  BVA  - Mayer's bonded valence
  FA   - Mayer's free valence

  ATOM       NA         ZA         QA         VA         BVA        FA
  0 O      8.2352     8.0000    -0.2352     2.0076     1.2133     0.7943
  1 O      8.2749     8.0000    -0.2749     2.0568     2.0491     0.0078
  2 C      5.9561     6.0000     0.0439     3.9906     3.9905     0.0000
  3 C      5.9617     6.0000     0.0383     3.9471     3.9468     0.0003
  4 C      5.9797     6.0000     0.0203     3.7909     3.7906     0.0004
  5 C      6.0846     6.0000    -0.0846     3.9622     3.9613     0.0009
  6 C      5.9434     6.0000     0.0566     3.8452     3.8452     0.0000
  7 H      0.8361     1.0000     0.1639     1.0144     1.0132     0.0012
  8 H      0.9473     1.0000     0.0527     1.0069     1.0069     0.0000
  9 H      0.9488     1.0000     0.0512     0.9839     0.9839     0.0000
 10 H      0.9635     1.0000     0.0365     0.9883     0.9883     0.0000
 11 H      1.0036     1.0000    -0.0036     0.9983     0.9983     0.0000
 12 H      0.9360     1.0000     0.0640     0.9793     0.9793     0.0000
 13 H      0.9291     1.0000     0.0709     0.9817     0.9817     0.0000

  Mayer bond orders larger than 0.100000
B(  0-O ,  1-O ) :   0.1308 B(  0-O ,  7-H ) :   0.9921 B(  1-O ,  2-C ) :   0.9221 
B(  1-O ,  3-C ) :   0.9174 B(  2-C ,  3-C ) :   1.0246 B(  2-C ,  6-C ) :   1.0144 
B(  2-C ,  8-H ) :   0.9580 B(  3-C ,  4-C ) :   0.9859 B(  3-C ,  9-H ) :   0.9644 
B(  4-C ,  5-C ) :   1.8279 B(  4-C , 10-H ) :   0.9931 B(  5-C ,  6-C ) :   1.0108 
B(  5-C , 11-H ) :   0.9927 B(  6-C , 12-H ) :   0.9341 B(  6-C , 13-H ) :   0.9290 



------------------
HIRSHFELD ANALYSIS
------------------

Total integrated alpha density =     27.000017978
Total integrated beta density  =     26.000019893

  ATOM     CHARGE      SPIN    
   0 O   -0.239194    0.846018
   1 O   -0.126297    0.095537
   2 C    0.049278    0.000186
   3 C    0.038967    0.014458
   4 C   -0.047205   -0.006885
   5 C   -0.023783    0.022449
   6 C   -0.036815    0.001350
   7 H    0.134370    0.022224
   8 H    0.046902    0.001383
   9 H    0.045972    0.001159
  10 H    0.041633   -0.000385
  11 H    0.039160    0.001876
  12 H    0.035466    0.000411
  13 H    0.041509    0.000217

  TOTAL  -0.000038    0.999998

-------
TIMINGS
-------

Total SCF time: 0 days 0 hours 1 min 9 sec 

Total time                  ....      69.801 sec
Sum of individual times     ....      69.641 sec  ( 99.8%)

Fock matrix formation       ....      67.719 sec  ( 97.0%)
  Split-RI-J                ....       4.026 sec  (  5.9% of F)
  Chain of spheres X        ....      46.556 sec  ( 68.7% of F)
  XC integration            ....      17.136 sec  ( 25.3% of F)
    Basis function eval.    ....       5.017 sec  ( 29.3% of XC)
    Density eval.           ....       4.679 sec  ( 27.3% of XC)
    XC-Functional eval.     ....       1.692 sec  (  9.9% of XC)
    XC-Potential eval.      ....       5.362 sec  ( 31.3% of XC)
Diagonalization             ....       0.110 sec  (  0.2%)
Density matrix formation    ....       0.009 sec  (  0.0%)
Population analysis         ....       0.387 sec  (  0.6%)
Initial guess               ....       0.218 sec  (  0.3%)
Orbital Transformation      ....       0.000 sec  (  0.0%)
Orbital Orthonormalization  ....       0.000 sec  (  0.0%)
DIIS solution               ....       0.028 sec  (  0.0%)
Grid generation             ....       1.171 sec  (  1.7%)

Maximum memory used throughout the entire SCF-calculation: 63.4 MB


-------------------------------------------------------------------------------
                          DFT DISPERSION CORRECTION                            
                                                                               
                              DFTD3 V3.1  Rev 1                                
                          USING Becke-Johnson damping                          
-------------------------------------------------------------------------------
The PBE0 functional is recognized
Active option DFTDOPT                   ...         4   

molecular C6(AA) [au] = 1742.176704 


            DFT-D V3
 parameters
 s6 scaling factor         :     1.0000 
 a1 scaling factor         :     0.4145 
 s8 scaling factor         :     1.2177 
 a2 scaling factor         :     4.8593 
 ad hoc parameters k1-k3   :    16.0000     1.3333    -4.0000 

 Edisp/kcal,au: -6.162554706687  -0.009820654993 
 E6   /kcal   :  -3.920215185 
 E8   /kcal   :  -2.242339522 
 % E8         :  36.386525209 

-------------------------   ----------------
Dispersion correction           -0.009820655
-------------------------   ----------------


-------------------------   --------------------
FINAL SINGLE POINT ENERGY      -344.360826090699
-------------------------   --------------------

------------------------------------------------------------------------------
                         ORCA SCF GRADIENT CALCULATION
------------------------------------------------------------------------------

 ... reading COSX grid (gridx3)
Gradient of the Kohn-Sham DFT energy:
Kohn-Sham wavefunction type      ... UKS
Hartree-Fock exchange scaling    ...    0.250
Number of operators              ...    2
Number of atoms                  ...   14
Basis set dimensions             ...  133
Integral neglect threshold       ... 2.5e-11
Integral primitive cutoff        ... 2.5e-12
SHARK Integral package           ... ON

Nuc. rep. gradient       (SHARK) ... done (  0.0 sec)
HCore & Overlap gradient (SHARK) ... done (  0.1 sec)
RI-J gradient            (SHARK) ... done (  0.6 sec)
COSX-gradient                    ... done (  6.8 sec)
Exchange-correlation gradient    ... done
Dispersion correction            ... done

------------------
CARTESIAN GRADIENT
------------------

   1   O   :    0.021742395    0.004779678   -0.006915692
   2   O   :    0.026618236    0.019245774   -0.039121903
   3   C   :    0.028414474    0.003173285    0.039654431
   4   C   :   -0.052103861   -0.050041592   -0.024404881
   5   C   :   -0.010065720    0.003338850    0.004492684
   6   C   :    0.067547663   -0.064167117    0.003725731
   7   C   :   -0.026948337    0.015816441   -0.006114714
   8   H   :    0.001586968   -0.000027599   -0.002653124
   9   H   :   -0.006382382    0.003519936   -0.001260215
  10   H   :   -0.002298672    0.015615762    0.012680590
  11   H   :    0.003646087   -0.000162172    0.000679181
  12   H   :   -0.053114842    0.052189007    0.014075870
  13   H   :    0.004673718   -0.002247809    0.004259785
  14   H   :   -0.003554597   -0.000923659    0.000847196

Difference to translation invariance:
           :   -0.0002388715    0.0001087846   -0.0000550611

Difference to rotation invariance:
           :   -0.0000246553   -0.0003778089   -0.0001792541

Norm of the cartesian gradient     ...    0.1657950479
RMS gradient                       ...    0.0255827313
MAX gradient                       ...    0.0675476628

-------
TIMINGS
-------

Total SCF gradient time            ...       11.659 sec

One electron gradient       ....       0.098 sec  (  0.8%)
RI-J Coulomb gradient       ....       0.606 sec  (  5.2%)
COSX gradient               ....       6.832 sec  ( 58.6%)
XC gradient                 ....       3.808 sec  ( 32.7%)

Maximum memory used throughout the entire SCFGRAD-calculation: 50.3 MB

                            ***************************************
                            *     ORCA property calculations      *
                            ***************************************

                                    ---------------------
                                    Active property flags
                                    ---------------------
   (+) Dipole Moment


------------------------------------------------------------------------------
                       ORCA ELECTRIC PROPERTIES CALCULATION
------------------------------------------------------------------------------

Dipole Moment Calculation                       ... on
Quadrupole Moment Calculation                   ... off
Polarizability Calculation                      ... off
GBWName                                         ... 10_1_orca.gbw
Electron density                                ... 10_1_orca.scfp
The origin for moment calculation is the CENTER OF MASS  = (-0.291409, -0.110215  0.406248)

-------------
DIPOLE MOMENT
-------------
                                X             Y             Z
Electronic contribution:     -0.80756       0.22401       1.93218
Nuclear contribution   :      1.29258       0.62928      -2.33976
                        -----------------------------------------
Total Dipole Moment    :      0.48502       0.85329      -0.40758
                        -----------------------------------------
Magnitude (a.u.)       :      1.06277
Magnitude (Debye)      :      2.70133



--------------------
Rotational spectrum 
--------------------
 
Rotational constants in cm-1:     0.184198     0.069933     0.060832 
Rotational constants in MHz :  5522.123362  2096.541269  1823.686212 

 Dipole components along the rotational axes: 
x,y,z [a.u.] :     0.670053     0.379715     0.732335 
x,y,z [Debye]:     1.703141     0.965159     1.861448 

 

Timings for individual modules:

Sum of individual times         ...       81.674 sec (=   1.361 min)
GTO integral calculation        ...        0.162 sec (=   0.003 min)   0.2 %
SCF iterations                  ...       69.824 sec (=   1.164 min)  85.5 %
SCF Gradient evaluation         ...       11.687 sec (=   0.195 min)  14.3 %
                             ****ORCA TERMINATED NORMALLY****
TOTAL RUN TIME: 0 days 0 hours 1 minutes 21 seconds 828 msec
