
                                 *****************
                                 * O   R   C   A *
                                 *****************

                                            #,                                       
                                            ###                                      
                                            ####                                     
                                            #####                                    
                                            ######                                   
                                           ########,                                 
                                     ,,################,,,,,                         
                               ,,#################################,,                 
                          ,,##########################################,,             
                       ,#########################################, ''#####,          
                    ,#############################################,,   '####,        
                  ,##################################################,,,,####,       
                ,###########''''           ''''###############################       
              ,#####''   ,,,,##########,,,,          '''####'''          '####       
            ,##' ,,,,###########################,,,                        '##       
           ' ,,###''''                  '''############,,,                           
         ,,##''                                '''############,,,,        ,,,,,,###''
      ,#''                                            '''#######################'''  
     '                                                          ''''####''''         
             ,#######,   #######,   ,#######,      ##                                
            ,#'     '#,  ##    ##  ,#'     '#,    #''#        ######   ,####,        
            ##       ##  ##   ,#'  ##            #'  '#       #        #'  '#        
            ##       ##  #######   ##           ,######,      #####,   #    #        
            '#,     ,#'  ##    ##  '#,     ,#' ,#      #,         ##   #,  ,#        
             '#######'   ##     ##  '#######'  #'      '#     #####' # '####'        



                  #######################################################
                  #                        -***-                        #
                  #          Department of theory and spectroscopy      #
                  #    Directorship and core code : Frank Neese         #
                  #        Max Planck Institute fuer Kohlenforschung    #
                  #                Kaiser Wilhelm Platz 1               #
                  #                 D-45470 Muelheim/Ruhr               #
                  #                      Germany                        #
                  #                                                     #
                  #                  All rights reserved                #
                  #                        -***-                        #
                  #######################################################


                         Program Version 5.0.4 -  RELEASE  -


 With contributions from (in alphabetic order):
   Daniel Aravena         : Magnetic Suceptibility
   Michael Atanasov       : Ab Initio Ligand Field Theory (pilot matlab implementation)
   Alexander A. Auer      : GIAO ZORA, VPT2 properties, NMR spectrum
   Ute Becker             : Parallelization
   Giovanni Bistoni       : ED, misc. LED, open-shell LED, HFLD
   Martin Brehm           : Molecular dynamics
   Dmytro Bykov           : SCF Hessian
   Vijay G. Chilkuri      : MRCI spin determinant printing, contributions to CSF-ICE
   Dipayan Datta          : RHF DLPNO-CCSD density
   Achintya Kumar Dutta   : EOM-CC, STEOM-CC
   Dmitry Ganyushin       : Spin-Orbit,Spin-Spin,Magnetic field MRCI
   Miquel Garcia          : C-PCM and meta-GGA Hessian, CC/C-PCM, Gaussian charge scheme
   Yang Guo               : DLPNO-NEVPT2, F12-NEVPT2, CIM, IAO-localization
   Andreas Hansen         : Spin unrestricted coupled pair/coupled cluster methods
   Benjamin Helmich-Paris : MC-RPA, TRAH-SCF, COSX integrals
   Lee Huntington         : MR-EOM, pCC
   Robert Izsak           : Overlap fitted RIJCOSX, COSX-SCS-MP3, EOM
   Marcus Kettner         : VPT2
   Christian Kollmar      : KDIIS, OOCD, Brueckner-CCSD(T), CCSD density, CASPT2, CASPT2-K
   Simone Kossmann        : Meta GGA functionals, TD-DFT gradient, OOMP2, MP2 Hessian
   Martin Krupicka        : Initial AUTO-CI
   Lucas Lang             : DCDCAS
   Marvin Lechner         : AUTO-CI (C++ implementation), FIC-MRCC
   Dagmar Lenk            : GEPOL surface, SMD
   Dimitrios Liakos       : Extrapolation schemes; Compound Job, initial MDCI parallelization
   Dimitrios Manganas     : Further ROCIS development; embedding schemes
   Dimitrios Pantazis     : SARC Basis sets
   Anastasios Papadopoulos: AUTO-CI, single reference methods and gradients
   Taras Petrenko         : DFT Hessian,TD-DFT gradient, ASA, ECA, R-Raman, ABS, FL, XAS/XES, NRVS
   Peter Pinski           : DLPNO-MP2, DLPNO-MP2 Gradient
   Christoph Reimann      : Effective Core Potentials
   Marius Retegan         : Local ZFS, SOC
   Christoph Riplinger    : Optimizer, TS searches, QM/MM, DLPNO-CCSD(T), (RO)-DLPNO pert. Triples
   Tobias Risthaus        : Range-separated hybrids, TD-DFT gradient, RPA, STAB
   Michael Roemelt        : Original ROCIS implementation
   Masaaki Saitow         : Open-shell DLPNO-CCSD energy and density
   Barbara Sandhoefer     : DKH picture change effects
   Avijit Sen             : IP-ROCIS
   Kantharuban Sivalingam : CASSCF convergence, NEVPT2, FIC-MRCI
   Bernardo de Souza      : ESD, SOC TD-DFT
   Georgi Stoychev        : AutoAux, RI-MP2 NMR, DLPNO-MP2 response
   Willem Van den Heuvel  : Paramagnetic NMR
   Boris Wezisla          : Elementary symmetry handling
   Frank Wennmohs         : Technical directorship


 We gratefully acknowledge several colleagues who have allowed us to
 interface, adapt or use parts of their codes:
   Stefan Grimme, W. Hujo, H. Kruse, P. Pracht,  : VdW corrections, initial TS optimization,
                  C. Bannwarth, S. Ehlert          DFT functionals, gCP, sTDA/sTD-DF
   Ed Valeev, F. Pavosevic, A. Kumar             : LibInt (2-el integral package), F12 methods
   Garnet Chan, S. Sharma, J. Yang, R. Olivares  : DMRG
   Ulf Ekstrom                                   : XCFun DFT Library
   Mihaly Kallay                                 : mrcc  (arbitrary order and MRCC methods)
   Jiri Pittner, Ondrej Demel                    : Mk-CCSD
   Frank Weinhold                                : gennbo (NPA and NBO analysis)
   Christopher J. Cramer and Donald G. Truhlar   : smd solvation model
   Lars Goerigk                                  : TD-DFT with DH, B97 family of functionals
   V. Asgeirsson, H. Jonsson                     : NEB implementation
   FAccTs GmbH                                   : IRC, NEB, NEB-TS, DLPNO-Multilevel, CI-OPT
                                                   MM, QMMM, 2- and 3-layer-ONIOM, Crystal-QMMM,
                                                   LR-CPCM, SF, NACMEs, symmetry and pop. for TD-DFT,
                                                   nearIR, NL-DFT gradient (VV10), updates on ESD,
                                                   ML-optimized integration grids
   S Lehtola, MJT Oliveira, MAL Marques          : LibXC Library
   Liviu Ungur et al                             : ANISO software


 Your calculation uses the libint2 library for the computation of 2-el integrals
 For citations please refer to: http://libint.valeyev.net

 Your ORCA version has been built with support for libXC version: 5.1.0
 For citations please refer to: https://tddft.org/programs/libxc/

 This ORCA versions uses:
   CBLAS   interface :  Fast vector & matrix operations
   LAPACKE interface :  Fast linear algebra routines
   SCALAPACK package :  Parallel linear algebra routines
   Shared memory     :  Shared parallel matrices
   BLAS/LAPACK       :  OpenBLAS 0.3.15  USE64BITINT DYNAMIC_ARCH NO_AFFINITY SkylakeX SINGLE_THREADED
        Core in use  :  SkylakeX
   Copyright (c) 2011-2014, The OpenBLAS Project


Your calculation utilizes the atom-pairwise dispersion correction
with the Becke-Johnson damping scheme (D3BJ)
Cite in your paper:
S.Grimme, S.Ehrlich, L.Goerigk, J Comput Chem, (2011), 32, 1456–1465 
S.Grimme, J.Antony, S.Ehrlich and H.Krieg, J.Chem.Phys., 132, (2010), 154104 
   

================================================================================

----- Orbital basis set information -----
Your calculation utilizes the basis: def2-SVP
   F. Weigend and R. Ahlrichs, Phys. Chem. Chem. Phys. 7, 3297 (2005).

----- AuxJ basis set information -----
Your calculation utilizes the auxiliary basis: def2/J
   F. Weigend, Phys. Chem. Chem. Phys. 8, 1057 (2006).

================================================================================
                                        WARNINGS
                       Please study these warnings very carefully!
================================================================================


WARNING: your system is open-shell and RHF/RKS was chosen
  ===> : WILL SWITCH to UHF/UKS


INFO   : the flag for use of the SHARK integral package has been found!

================================================================================
                                       INPUT FILE
================================================================================
NAME = 10_2_orca.inp
|  1> ! EnGrad PBE0 RIJCOSX D3BJ def2-SVP def2/J 
|  2> %output 
|  3> xyzfile=True 
|  4> end 
|  5> %scf 
|  6> maxiter 250 
|  7> end
|  8> %output
|  9> Print[P_Hirshfeld] = 1
| 10> end
| 11> % maxcore
| 12> 4000
| 13> *xyz 0 2
| 14> O   -2.37824750  -0.61357446   1.60843980 
| 15> O   -0.53255741  -0.09556539   0.92705352 
| 16> C   -0.71259771   0.30762390  -0.39619853 
| 17> C    0.22386903   1.00679273   0.47956084 
| 18> C    1.57215901   0.41280280   0.24083262 
| 19> C    1.41926542  -0.63312813  -0.56622118 
| 20> C    0.05177572  -0.63569470  -1.26248315 
| 21> H   -2.29033137   0.22234827   2.09369052 
| 22> H   -1.69816110   0.70917653  -0.64476937 
| 23> H    0.03423344   1.96885440   0.99165844 
| 24> H    2.46711812   0.67496998   0.81205765 
| 25> H    2.11335448  -1.42330234  -0.70205015 
| 26> H    0.19651332  -0.29091786  -2.29700670 
| 27> H   -0.46625224  -1.61051272  -1.28449954 
| 28> *
| 29> 
| 30>                          ****END OF INPUT****
================================================================================

                     *******************************
                     * Energy+Gradient Calculation *
                     *******************************

---------------------------------
CARTESIAN COORDINATES (ANGSTROEM)
---------------------------------
  O     -2.378248   -0.613574    1.608440
  O     -0.532557   -0.095565    0.927054
  C     -0.712598    0.307624   -0.396199
  C      0.223869    1.006793    0.479561
  C      1.572159    0.412803    0.240833
  C      1.419265   -0.633128   -0.566221
  C      0.051776   -0.635695   -1.262483
  H     -2.290331    0.222348    2.093691
  H     -1.698161    0.709177   -0.644769
  H      0.034233    1.968854    0.991658
  H      2.467118    0.674970    0.812058
  H      2.113354   -1.423302   -0.702050
  H      0.196513   -0.290918   -2.297007
  H     -0.466252   -1.610513   -1.284500

----------------------------
CARTESIAN COORDINATES (A.U.)
----------------------------
  NO LB      ZA    FRAG     MASS         X           Y           Z
   0 O     8.0000    0    15.999   -4.494236   -1.159488    3.039511
   1 O     8.0000    0    15.999   -1.006388   -0.180592    1.751877
   2 C     6.0000    0    12.011   -1.346615    0.581325   -0.748707
   3 C     6.0000    0    12.011    0.423051    1.902563    0.906239
   4 C     6.0000    0    12.011    2.970950    0.780084    0.455108
   5 C     6.0000    0    12.011    2.682023   -1.196439   -1.070003
   6 C     6.0000    0    12.011    0.097842   -1.201289   -2.385747
   7 H     1.0000    0     1.008   -4.328099    0.420177    3.956502
   8 H     1.0000    0     1.008   -3.209059    1.340149   -1.218438
   9 H     1.0000    0     1.008    0.064692    3.720596    1.873963
  10 H     1.0000    0     1.008    4.662178    1.275508    1.534567
  11 H     1.0000    0     1.008    3.993661   -2.689652   -1.326683
  12 H     1.0000    0     1.008    0.371356   -0.549755   -4.340714
  13 H     1.0000    0     1.008   -0.881089   -3.043428   -2.427352

--------------------------------
INTERNAL COORDINATES (ANGSTROEM)
--------------------------------
 O      0   0   0     0.000000000000     0.00000000     0.00000000
 O      1   0   0     2.034500569550     0.00000000     0.00000000
 C      2   1   0     1.394981039665   105.91431783     0.00000000
 C      2   1   3     1.409831224833   142.38524873    65.79730567
 C      4   2   1     1.492548515169   102.96005184   177.21818699
 C      5   4   2     1.329918717925   107.83027621    53.43467104
 C      3   2   1     1.491497825826   107.57818174   243.04187592
 H      1   2   3     0.970548462317    82.29790135   253.30523936
 H      3   2   1     1.092871068730   115.99802721    27.22784182
 H      4   2   1     1.106240600323   116.17351758    36.81495395
 H      5   4   2     1.093609378956   124.07714444   245.47398906
 H      6   5   4     1.060464244778   126.04999381   198.92100611
 H      7   3   2     1.100026825927   114.54640440   194.31139926
 H      7   3   2     1.104132175460   109.24010639    72.19424089

---------------------------
INTERNAL COORDINATES (A.U.)
---------------------------
 O      0   0   0     0.000000000000     0.00000000     0.00000000
 O      1   0   0     3.844648895756     0.00000000     0.00000000
 C      2   1   0     2.636132126979   105.91431783     0.00000000
 C      2   1   3     2.664194909985   142.38524873    65.79730567
 C      4   2   1     2.820507935261   102.96005184   177.21818699
 C      5   4   2     2.513182157255   107.83027621    53.43467104
 C      3   2   1     2.818522420151   107.57818174   243.04187592
 H      1   2   3     1.834070793477    82.29790135   253.30523936
 H      3   2   1     2.065227019585   115.99802721    27.22784182
 H      4   2   1     2.090491772836   116.17351758    36.81495395
 H      5   4   2     2.066622223714   124.07714444   245.47398906
 H      6   5   4     2.003986997446   126.04999381   198.92100611
 H      7   3   2     2.078749440968   114.54640440   194.31139926
 H      7   3   2     2.086507427271   109.24010639    72.19424089

---------------------
BASIS SET INFORMATION
---------------------
There are 3 groups of distinct atoms

 Group   1 Type O   : 7s4p1d contracted to 3s2p1d pattern {511/31/1}
 Group   2 Type C   : 7s4p1d contracted to 3s2p1d pattern {511/31/1}
 Group   3 Type H   : 4s1p contracted to 2s1p pattern {31/1}

Atom   0O    basis set group =>   1
Atom   1O    basis set group =>   1
Atom   2C    basis set group =>   2
Atom   3C    basis set group =>   2
Atom   4C    basis set group =>   2
Atom   5C    basis set group =>   2
Atom   6C    basis set group =>   2
Atom   7H    basis set group =>   3
Atom   8H    basis set group =>   3
Atom   9H    basis set group =>   3
Atom  10H    basis set group =>   3
Atom  11H    basis set group =>   3
Atom  12H    basis set group =>   3
Atom  13H    basis set group =>   3
---------------------------------
AUXILIARY/J BASIS SET INFORMATION
---------------------------------
There are 3 groups of distinct atoms

 Group   1 Type O   : 12s5p4d2f1g contracted to 6s4p3d1f1g pattern {711111/2111/211/2/1}
 Group   2 Type C   : 12s5p4d2f1g contracted to 6s4p3d1f1g pattern {711111/2111/211/2/1}
 Group   3 Type H   : 5s2p1d contracted to 3s1p1d pattern {311/2/1}

Atom   0O    basis set group =>   1
Atom   1O    basis set group =>   1
Atom   2C    basis set group =>   2
Atom   3C    basis set group =>   2
Atom   4C    basis set group =>   2
Atom   5C    basis set group =>   2
Atom   6C    basis set group =>   2
Atom   7H    basis set group =>   3
Atom   8H    basis set group =>   3
Atom   9H    basis set group =>   3
Atom  10H    basis set group =>   3
Atom  11H    basis set group =>   3
Atom  12H    basis set group =>   3
Atom  13H    basis set group =>   3
------------------------------------------------------------------------------
                           ORCA GTO INTEGRAL CALCULATION
                           -- RI-GTO INTEGRALS CHOSEN --
------------------------------------------------------------------------------
------------------------------------------------------------------------------
                   ___                                                        
                  /   \      - P O W E R E D   B Y -                         
                 /     \                                                     
                 |  |  |   _    _      __       _____    __    __             
                 |  |  |  | |  | |    /  \     |  _  \  |  |  /  |          
                  \  \/   | |  | |   /    \    | | | |  |  | /  /          
                 / \  \   | |__| |  /  /\  \   | |_| |  |  |/  /          
                |  |  |   |  __  | /  /__\  \  |    /   |      \           
                |  |  |   | |  | | |   __   |  |    \   |  |\   \          
                \     /   | |  | | |  |  |  |  | |\  \  |  | \   \       
                 \___/    |_|  |_| |__|  |__|  |_| \__\ |__|  \__/        
                                                                              
                      - O R C A' S   B I G   F R I E N D -                    
                                      &                                       
                       - I N T E G R A L  F E E D E R -                       
                                                                              
 v1 FN, 2020, v2 2021                                                         
------------------------------------------------------------------------------


Reading SHARK input file 10_2_orca.SHARKINP.tmp ... ok
----------------------
SHARK INTEGRAL PACKAGE
----------------------

Number of atoms                             ...     14
Number of basis functions                   ...    133
Number of shells                            ...     63
Maximum angular momentum                    ...      2
Integral batch strategy                     ... SHARK/LIBINT Hybrid
RI-J (if used) integral strategy            ... SPLIT-RIJ (Revised 2003 algorithm where possible)
Printlevel                                  ...      1
Contraction scheme used                     ... SEGMENTED contraction
Coulomb Range Separation                    ... NOT USED
Exchange Range Separation                   ... NOT USED
Finite Nucleus Model                        ... NOT USED
Auxiliary Coulomb fitting basis             ... AVAILABLE
   # of basis functions in Aux-J            ...    420
   # of shells in Aux-J                     ...    140
   Maximum angular momentum in Aux-J        ...      4
Auxiliary J/K fitting basis                 ... NOT available
Auxiliary Correlation fitting basis         ... NOT available
Auxiliary 'external' fitting basis          ... NOT available
Integral threshold                          ...     2.500000e-11
Primitive cut-off                           ...     2.500000e-12
Primitive pair pre-selection threshold      ...     2.500000e-12

Calculating pre-screening integrals         ... done (  0.0 sec) Dimension = 63
Organizing shell pair data                  ... done (  0.0 sec)
Shell pair information
Total number of shell pairs                 ...      2016
Shell pairs after pre-screening             ...      1949
Total number of primitive shell pairs       ...      7252
Primitive shell pairs kept                  ...      5348
          la=0 lb=0:    605 shell pairs
          la=1 lb=0:    711 shell pairs
          la=1 lb=1:    225 shell pairs
          la=2 lb=0:    236 shell pairs
          la=2 lb=1:    144 shell pairs
          la=2 lb=2:     28 shell pairs

Calculating one electron integrals          ... done (  0.0 sec)
Calculating RI/J V-Matrix + Cholesky decomp.... done (  0.0 sec)
Calculating Nuclear repulsion               ... done (  0.0 sec) ENN=    302.298420321031 Eh

SHARK setup successfully completed in   0.1 seconds

Maximum memory used throughout the entire GTOINT-calculation: 16.8 MB
-------------------------------------------------------------------------------
                                 ORCA SCF
-------------------------------------------------------------------------------

------------
SCF SETTINGS
------------
Hamiltonian:
 Density Functional     Method          .... DFT(GTOs)
 Exchange Functional    Exchange        .... PBE
   PBE kappa parameter   XKappa         ....  0.804000
   PBE mue parameter    XMuePBE         ....  0.219520
 Correlation Functional Correlation     .... PBE
   PBE beta parameter  CBetaPBE         ....  0.066725
 LDA part of GGA corr.  LDAOpt          .... PW91-LDA
 Gradients option       PostSCFGGA      .... off
 Hybrid DFT is turned on
   Fraction HF Exchange ScalHFX         ....  0.250000
   Scaling of DF-GGA-X  ScalDFX         ....  0.750000
   Scaling of DF-GGA-C  ScalDFC         ....  1.000000
   Scaling of DF-LDA-C  ScalLDAC        ....  1.000000
   Perturbative correction              ....  0.000000
   Density functional embedding theory  .... OFF
   NL short-range parameter             ....  6.900000
 RI-approximation to the Coulomb term is turned on
   Number of AuxJ basis functions       .... 420
   RIJ-COSX (HFX calculated with COS-X)).... on


General Settings:
 Integral files         IntName         .... 10_2_orca
 Hartree-Fock type      HFTyp           .... UHF
 Total Charge           Charge          ....    0
 Multiplicity           Mult            ....    2
 Number of Electrons    NEL             ....   53
 Basis Dimension        Dim             ....  133
 Nuclear Repulsion      ENuc            ....    302.2984203210 Eh

Convergence Acceleration:
 DIIS                   CNVDIIS         .... on
   Start iteration      DIISMaxIt       ....    12
   Startup error        DIISStart       ....  0.200000
   # of expansion vecs  DIISMaxEq       ....     5
   Bias factor          DIISBfac        ....   1.050
   Max. coefficient     DIISMaxC        ....  10.000
 Trust-Rad. Augm. Hess. CNVTRAH         .... auto
   Auto Start mean grad. ratio tolernc. ....  1.125000
   Auto Start start iteration           ....    20
   Auto Start num. interpolation iter.  ....    10
   Max. Number of Micro iterations      ....    16
   Max. Number of Macro iterations      .... Maxiter - #DIIS iter
   Number of Davidson start vectors     ....     2
   Converg. threshold I  (grad. norm)   ....   1.000e-05
   Converg. threshold II (energy diff.) ....   1.000e-08
   Grad. Scal. Fac. for Micro threshold ....   0.100
   Minimum threshold for Micro iter.    ....   0.010
   NR start threshold (gradient norm)   ....   0.001
   Initial trust radius                 ....   0.400
   Minimum AH scaling param. (alpha)    ....   1.000
   Maximum AH scaling param. (alpha)    .... 1000.000
   Orbital update algorithm             .... Taylor
   White noise on init. David. guess    .... on
   Maximum white noise                  ....   0.010
   Quad. conv. algorithm                .... NR
 SOSCF                  CNVSOSCF        .... off
 Level Shifting         CNVShift        .... on
   Level shift para.    LevelShift      ....    0.2500
   Turn off err/grad.   ShiftErr        ....    0.0010
 Zerner damping         CNVZerner       .... off
 Static damping         CNVDamp         .... on
   Fraction old density DampFac         ....    0.7000
   Max. Damping (<1)    DampMax         ....    0.9800
   Min. Damping (>=0)   DampMin         ....    0.0000
   Turn off err/grad.   DampErr         ....    0.1000
 Fernandez-Rico         CNVRico         .... off

SCF Procedure:
 Maximum # iterations   MaxIter         ....   250
 SCF integral mode      SCFMode         .... Direct
   Integral package                     .... SHARK and LIBINT hybrid scheme
 Reset frequency        DirectResetFreq ....    20
 Integral Threshold     Thresh          ....  2.500e-11 Eh
 Primitive CutOff       TCut            ....  2.500e-12 Eh

Convergence Tolerance:
 Convergence Check Mode ConvCheckMode   .... Total+1el-Energy
 Convergence forced     ConvForced      .... 0
 Energy Change          TolE            ....  1.000e-08 Eh
 1-El. energy change                    ....  1.000e-05 Eh
 DIIS Error             TolErr          ....  5.000e-07


Diagonalization of the overlap matrix:
Smallest eigenvalue                        ... 7.132e-04
Time for diagonalization                   ...    0.003 sec
Threshold for overlap eigenvalues          ... 1.000e-08
Number of eigenvalues below threshold      ... 0
Time for construction of square roots      ...    0.001 sec
Total time needed                          ...    0.004 sec

Time for model grid setup =    0.119 sec

------------------------------
INITIAL GUESS: MODEL POTENTIAL
------------------------------
Loading Hartree-Fock densities                     ... done
Calculating cut-offs                               ... done
Initializing the effective Hamiltonian             ... done
Setting up the integral package (SHARK)            ... done
Starting the Coulomb interaction                   ... done (   0.1 sec)
Reading the grid                                   ... done
Mapping shells                                     ... done
Starting the XC term evaluation                    ... done (   0.1 sec)
  promolecular density results
     # of electrons  =     52.997369373
     EX              =    -43.908073688
     EC              =     -1.759271902
     EX+EC           =    -45.667345591
Transforming the Hamiltonian                       ... done (   0.0 sec)
Diagonalizing the Hamiltonian                      ... done (   0.0 sec)
Back transforming the eigenvectors                 ... done (   0.0 sec)
Now organizing SCF variables                       ... done
                      ------------------
                      INITIAL GUESS DONE (   0.3 sec)
                      ------------------
-------------------
DFT GRID GENERATION
-------------------

General Integration Accuracy     IntAcc      ... 4.388
Radial Grid Type                 RadialGrid  ... OptM3 with GC (2021)
Angular Grid (max. ang.)         AngularGrid ... 4 (Lebedev-302)
Angular grid pruning method      GridPruning ... 4 (adaptive)
Weight generation scheme         WeightScheme... Becke
Basis function cutoff            BFCut       ... 1.0000e-11
Integration weight cutoff        WCut        ... 1.0000e-14
Angular grids for H and He will be reduced by one unit
Partially contracted basis set               ... off
Rotationally invariant grid construction     ... off

Total number of grid points                  ...    64876
Total number of batches                      ...     1020
Average number of points per batch           ...       63
Average number of grid points per atom       ...     4634
Time for grid setup =    0.491 sec

--------------------
COSX GRID GENERATION
--------------------

GRIDX 1
-------
General Integration Accuracy     IntAcc      ... 3.816
Radial Grid Type                 RadialGrid  ... OptM3 with GC (2021)
Angular Grid (max. ang.)         AngularGrid ... 1 (Lebedev-50)
Angular grid pruning method      GridPruning ... 4 (adaptive)
Weight generation scheme         WeightScheme... Becke
Basis function cutoff            BFCut       ... 1.0000e-11
Integration weight cutoff        WCut        ... 1.0000e-14
Angular grids for H and He will be reduced by one unit
Partially contracted basis set               ... on
Rotationally invariant grid construction     ... off

Total number of grid points                  ...     8301
Total number of batches                      ...      137
Average number of points per batch           ...       60
Average number of grid points per atom       ...      593
UseSFitting                                  ... on

GRIDX 2
-------
General Integration Accuracy     IntAcc      ... 4.020
Radial Grid Type                 RadialGrid  ... OptM3 with GC (2021)
Angular Grid (max. ang.)         AngularGrid ... 2 (Lebedev-110)
Angular grid pruning method      GridPruning ... 4 (adaptive)
Weight generation scheme         WeightScheme... Becke
Basis function cutoff            BFCut       ... 1.0000e-11
Integration weight cutoff        WCut        ... 1.0000e-14
Angular grids for H and He will be reduced by one unit
Partially contracted basis set               ... on
Rotationally invariant grid construction     ... off

Total number of grid points                  ...    18028
Total number of batches                      ...      288
Average number of points per batch           ...       62
Average number of grid points per atom       ...     1288
UseSFitting                                  ... on

GRIDX 3
-------
General Integration Accuracy     IntAcc      ... 4.338
Radial Grid Type                 RadialGrid  ... OptM3 with GC (2021)
Angular Grid (max. ang.)         AngularGrid ... 3 (Lebedev-194)
Angular grid pruning method      GridPruning ... 4 (adaptive)
Weight generation scheme         WeightScheme... Becke
Basis function cutoff            BFCut       ... 1.0000e-11
Integration weight cutoff        WCut        ... 1.0000e-14
Angular grids for H and He will be reduced by one unit
Partially contracted basis set               ... on
Rotationally invariant grid construction     ... off

Total number of grid points                  ...    39642
Total number of batches                      ...      625
Average number of points per batch           ...       63
Average number of grid points per atom       ...     2832
UseSFitting                                  ... on

Time for X-Grid setup             =    0.550 sec

--------------
SCF ITERATIONS
--------------
ITER       Energy         Delta-E        Max-DP      RMS-DP      [F,P]     Damp
               ***  Starting incremental Fock matrix formation  ***
  0   -344.1380295348   0.000000000000 0.05608507  0.00144574  0.1597881 0.7000
  1   -344.2337404061  -0.095710871297 0.04223117  0.00097448  0.0607710 0.7000
                               ***Turning on DIIS***
  2   -344.2732398132  -0.039499407067 0.08975561  0.00171921  0.0209728 0.0000
  3   -344.3432424276  -0.070002614449 0.03128841  0.00082314  0.0566732 0.0000
  4   -344.3588413838  -0.015598956121 0.00896516  0.00035192  0.0090088 0.0000
  5   -344.3604966102  -0.001655226436 0.00777541  0.00022619  0.0076211 0.0000
  6   -344.3612322791  -0.000735668929 0.00427205  0.00010461  0.0044626 0.0000
  7   -344.3614748836  -0.000242604466 0.00209422  0.00005925  0.0021622 0.0000
  8   -344.3615586609  -0.000083777332 0.00162329  0.00003764  0.0015789 0.0000
  9   -344.3615962746  -0.000037613628 0.00229240  0.00005329  0.0006653 0.0000
               *** Restarting incremental Fock matrix formation ***
                                   *** Resetting DIIS ***
 10   -344.3616176162  -0.000021341680 0.00089881  0.00001626  0.0003707 0.0000
 11   -344.3616213399  -0.000003723623 0.00033688  0.00000716  0.0003367 0.0000
 12   -344.3616229324  -0.000001592564 0.00109606  0.00001718  0.0003150 0.0000
 13   -344.3616262429  -0.000003310515 0.00104697  0.00001572  0.0002444 0.0000
 14   -344.3616283138  -0.000002070898 0.00104187  0.00001610  0.0001721 0.0000
 15   -344.3616295058  -0.000001191964 0.00039789  0.00000579  0.0000897 0.0000
 16   -344.3616297175  -0.000000211735 0.00022129  0.00000345  0.0000510 0.0000
 17   -344.3616297868  -0.000000069235 0.00012889  0.00000207  0.0000289 0.0000
 18   -344.3616298182  -0.000000031413 0.00010329  0.00000158  0.0000198 0.0000
 19   -344.3616298294  -0.000000011208 0.00007931  0.00000130  0.0000160 0.0000
 20   -344.3616298319  -0.000000002536 0.00002701  0.00000056  0.0000095 0.0000
 21   -344.3616298352  -0.000000003265 0.00001901  0.00000044  0.0000070 0.0000
 22   -344.3616298374  -0.000000002220 0.00000985  0.00000025  0.0000053 0.0000
 23   -344.3616298333   0.000000004121 0.00000704  0.00000017  0.0000051 0.0000
 24   -344.3616298373  -0.000000004022 0.00000559  0.00000012  0.0000049 0.0000
 25   -344.3616298375  -0.000000000169 0.00000729  0.00000014  0.0000044 0.0000
 26   -344.3616298354   0.000000002044 0.00000793  0.00000013  0.0000037 0.0000
                 **** Energy Check signals convergence ****

               *****************************************************
               *                     SUCCESS                       *
               *           SCF CONVERGED AFTER  27 CYCLES          *
               *****************************************************

Old exchange energy                            =    -11.200909438 Eh
New exchange energy                            =    -11.200894851 Eh
Exchange energy change after final integration =      0.000014586 Eh
Total energy after final integration           =   -344.361615254 Eh
Final COS-X integration done in                =     5.200 sec

----------------
TOTAL SCF ENERGY
----------------

Total Energy       :         -344.36161525 Eh           -9370.55594 eV

Components:
Nuclear Repulsion  :          302.29842032 Eh            8225.95822 eV
Electronic Energy  :         -646.66003557 Eh          -17596.51416 eV
One Electron Energy:        -1067.77903915 Eh          -29055.74482 eV
Two Electron Energy:          421.11900358 Eh           11459.23066 eV
Max COSX asymmetry :            0.00000085 Eh               0.00002 eV

Virial components:
Potential Energy   :         -686.15672327 Eh          -18671.27367 eV
Kinetic Energy     :          341.79510802 Eh            9300.71773 eV
Virial Ratio       :            2.00750891


DFT components:
N(Alpha)           :       27.000016431809 electrons
N(Beta)            :       26.000018296959 electrons
N(Total)           :       53.000034728768 electrons
E(X)               :      -33.514533537742 Eh       
E(C)               :       -1.774284550641 Eh       
E(XC)              :      -35.288818088383 Eh       
DFET-embed. en.    :        0.000000000000 Eh       

---------------
SCF CONVERGENCE
---------------

  Last Energy change         ...   -4.8950e-09  Tolerance :   1.0000e-08
  Last MAX-Density change    ...    0.0000e+00  Tolerance :   1.0000e-07
  Last RMS-Density change    ...    0.0000e+00  Tolerance :   5.0000e-09
  Last DIIS Error            ...    3.0697e-06  Tolerance :   5.0000e-07

             **** THE GBW FILE WAS UPDATED (10_2_orca.gbw) ****
             **** DENSITY 10_2_orca.scfp WAS UPDATED ****
             **** ENERGY FILE WAS UPDATED (10_2_orca.en.tmp) ****
----------------------
UHF SPIN CONTAMINATION
----------------------

Warning: in a DFT calculation there is little theoretical justification to 
         calculate <S**2> as in Hartree-Fock theory. We will do it anyways
         but you should keep in mind that the values have only limited relevance

Expectation value of <S**2>     :     0.753336
Ideal value S*(S+1) for S=0.5   :     0.750000
Deviation                       :     0.003336

             **** THE GBW FILE WAS UPDATED (10_2_orca.gbw) ****
             **** DENSITY 10_2_orca.scfp WAS UPDATED ****
----------------
ORBITAL ENERGIES
----------------
                 SPIN UP ORBITALS
  NO   OCC          E(Eh)            E(eV) 
   0   1.0000     -19.235294      -523.4190 
   1   1.0000     -19.204938      -522.5929 
   2   1.0000     -10.296220      -280.1744 
   3   1.0000     -10.291821      -280.0547 
   4   1.0000     -10.246226      -278.8140 
   5   1.0000     -10.243011      -278.7265 
   6   1.0000     -10.239613      -278.6340 
   7   1.0000      -1.140832       -31.0436 
   8   1.0000      -0.964054       -26.2332 
   9   1.0000      -0.843243       -22.9458 
  10   1.0000      -0.748705       -20.3733 
  11   1.0000      -0.684952       -18.6385 
  12   1.0000      -0.605419       -16.4743 
  13   1.0000      -0.575981       -15.6733 
  14   1.0000      -0.565908       -15.3992 
  15   1.0000      -0.483744       -13.1633 
  16   1.0000      -0.470570       -12.8048 
  17   1.0000      -0.444302       -12.0901 
  18   1.0000      -0.427802       -11.6411 
  19   1.0000      -0.418804       -11.3962 
  20   1.0000      -0.404622       -11.0103 
  21   1.0000      -0.376458       -10.2439 
  22   1.0000      -0.362272        -9.8579 
  23   1.0000      -0.322424        -8.7736 
  24   1.0000      -0.298847        -8.1321 
  25   1.0000      -0.285322        -7.7640 
  26   1.0000      -0.251885        -6.8541 
  27   0.0000      -0.001975        -0.0537 
  28   0.0000       0.068152         1.8545 
  29   0.0000       0.099315         2.7025 
  30   0.0000       0.108806         2.9608 
  31   0.0000       0.113982         3.1016 
  32   0.0000       0.128213         3.4888 
  33   0.0000       0.137678         3.7464 
  34   0.0000       0.143649         3.9089 
  35   0.0000       0.152420         4.1476 
  36   0.0000       0.177211         4.8221 
  37   0.0000       0.195999         5.3334 
  38   0.0000       0.225350         6.1321 
  39   0.0000       0.310172         8.4402 
  40   0.0000       0.318883         8.6772 
  41   0.0000       0.395016        10.7489 
  42   0.0000       0.400461        10.8971 
  43   0.0000       0.458586        12.4788 
  44   0.0000       0.467168        12.7123 
  45   0.0000       0.480895        13.0858 
  46   0.0000       0.503975        13.7139 
  47   0.0000       0.515918        14.0388 
  48   0.0000       0.550525        14.9806 
  49   0.0000       0.566439        15.4136 
  50   0.0000       0.568814        15.4782 
  51   0.0000       0.601336        16.3632 
  52   0.0000       0.622822        16.9479 
  53   0.0000       0.629819        17.1382 
  54   0.0000       0.645754        17.5719 
  55   0.0000       0.664125        18.0717 
  56   0.0000       0.669895        18.2288 
  57   0.0000       0.681551        18.5460 
  58   0.0000       0.685870        18.6635 
  59   0.0000       0.688973        18.7479 
  60   0.0000       0.711358        19.3570 
  61   0.0000       0.729442        19.8491 
  62   0.0000       0.761528        20.7222 
  63   0.0000       0.784447        21.3459 
  64   0.0000       0.845855        23.0169 
  65   0.0000       0.905171        24.6309 
  66   0.0000       0.924399        25.1542 
  67   0.0000       0.959231        26.1020 
  68   0.0000       0.990035        26.9402 
  69   0.0000       1.013450        27.5774 
  70   0.0000       1.043815        28.4037 
  71   0.0000       1.062156        28.9027 
  72   0.0000       1.112213        30.2649 
  73   0.0000       1.136022        30.9127 
  74   0.0000       1.219824        33.1931 
  75   0.0000       1.228545        33.4304 
  76   0.0000       1.288825        35.0707 
  77   0.0000       1.358879        36.9770 
  78   0.0000       1.465481        39.8778 
  79   0.0000       1.481209        40.3057 
  80   0.0000       1.491785        40.5935 
  81   0.0000       1.537471        41.8367 
  82   0.0000       1.544082        42.0166 
  83   0.0000       1.586397        43.1681 
  84   0.0000       1.596755        43.4499 
  85   0.0000       1.633587        44.4522 
  86   0.0000       1.677504        45.6472 
  87   0.0000       1.690033        45.9881 
  88   0.0000       1.720667        46.8217 
  89   0.0000       1.748700        47.5845 
  90   0.0000       1.767370        48.0926 
  91   0.0000       1.786356        48.6092 
  92   0.0000       1.818895        49.4946 
  93   0.0000       1.850496        50.3545 
  94   0.0000       1.867867        50.8273 
  95   0.0000       1.879909        51.1549 
  96   0.0000       1.932598        52.5887 
  97   0.0000       1.972272        53.6683 
  98   0.0000       2.000051        54.4242 
  99   0.0000       2.022088        55.0238 
 100   0.0000       2.057495        55.9873 
 101   0.0000       2.063305        56.1454 
 102   0.0000       2.109075        57.3908 
 103   0.0000       2.166004        58.9400 
 104   0.0000       2.177004        59.2393 
 105   0.0000       2.239563        60.9416 
 106   0.0000       2.258839        61.4661 
 107   0.0000       2.274765        61.8995 
 108   0.0000       2.298968        62.5581 
 109   0.0000       2.386119        64.9296 
 110   0.0000       2.422312        65.9145 
 111   0.0000       2.519263        68.5526 
 112   0.0000       2.549773        69.3829 
 113   0.0000       2.581672        70.2509 
 114   0.0000       2.652716        72.1841 
 115   0.0000       2.667413        72.5840 
 116   0.0000       2.708157        73.6927 
 117   0.0000       2.758019        75.0495 
 118   0.0000       2.770686        75.3942 
 119   0.0000       2.799079        76.1668 
 120   0.0000       2.811148        76.4952 
 121   0.0000       2.884033        78.4785 
 122   0.0000       2.909762        79.1786 
 123   0.0000       2.955171        80.4143 
 124   0.0000       3.013354        81.9975 
 125   0.0000       3.023558        82.2752 
 126   0.0000       3.071221        83.5722 
 127   0.0000       3.133793        85.2748 
 128   0.0000       3.175740        86.4163 
 129   0.0000       3.365261        91.5734 
 130   0.0000       3.418202        93.0140 
 131   0.0000       3.489919        94.9655 
 132   0.0000       3.756339       102.2152 

                 SPIN DOWN ORBITALS
  NO   OCC          E(Eh)            E(eV) 
   0   1.0000     -19.230997      -523.3020 
   1   1.0000     -19.179399      -521.8980 
   2   1.0000     -10.295688      -280.1599 
   3   1.0000     -10.292020      -280.0601 
   4   1.0000     -10.246236      -278.8143 
   5   1.0000     -10.242457      -278.7114 
   6   1.0000     -10.239824      -278.6398 
   7   1.0000      -1.135541       -30.8996 
   8   1.0000      -0.897784       -24.4300 
   9   1.0000      -0.840426       -22.8692 
  10   1.0000      -0.748462       -20.3667 
  11   1.0000      -0.681071       -18.5329 
  12   1.0000      -0.604470       -16.4485 
  13   1.0000      -0.574994       -15.6464 
  14   1.0000      -0.561261       -15.2727 
  15   1.0000      -0.475540       -12.9401 
  16   1.0000      -0.468858       -12.7583 
  17   1.0000      -0.437267       -11.8986 
  18   1.0000      -0.419590       -11.4176 
  19   1.0000      -0.406193       -11.0531 
  20   1.0000      -0.398999       -10.8573 
  21   1.0000      -0.374084       -10.1793 
  22   1.0000      -0.336163        -9.1475 
  23   1.0000      -0.299842        -8.1591 
  24   1.0000      -0.265114        -7.2141 
  25   1.0000      -0.260057        -7.0765 
  26   0.0000      -0.064918        -1.7665 
  27   0.0000       0.002210         0.0601 
  28   0.0000       0.070216         1.9107 
  29   0.0000       0.101027         2.7491 
  30   0.0000       0.110219         2.9992 
  31   0.0000       0.114821         3.1244 
  32   0.0000       0.130472         3.5503 
  33   0.0000       0.138036         3.7561 
  34   0.0000       0.144774         3.9395 
  35   0.0000       0.153302         4.1715 
  36   0.0000       0.179790         4.8923 
  37   0.0000       0.198201         5.3933 
  38   0.0000       0.226630         6.1669 
  39   0.0000       0.310886         8.4596 
  40   0.0000       0.319272         8.6878 
  41   0.0000       0.395133        10.7521 
  42   0.0000       0.400945        10.9103 
  43   0.0000       0.459734        12.5100 
  44   0.0000       0.467820        12.7300 
  45   0.0000       0.481908        13.1134 
  46   0.0000       0.505443        13.7538 
  47   0.0000       0.517259        14.0753 
  48   0.0000       0.552381        15.0311 
  49   0.0000       0.569175        15.4880 
  50   0.0000       0.570012        15.5108 
  51   0.0000       0.601612        16.3707 
  52   0.0000       0.623483        16.9658 
  53   0.0000       0.632632        17.2148 
  54   0.0000       0.646646        17.5961 
  55   0.0000       0.668083        18.1795 
  56   0.0000       0.674496        18.3540 
  57   0.0000       0.682230        18.5644 
  58   0.0000       0.686126        18.6704 
  59   0.0000       0.689405        18.7597 
  60   0.0000       0.711685        19.3659 
  61   0.0000       0.729956        19.8631 
  62   0.0000       0.762393        20.7458 
  63   0.0000       0.784952        21.3596 
  64   0.0000       0.846253        23.0277 
  65   0.0000       0.912740        24.8369 
  66   0.0000       0.935054        25.4441 
  67   0.0000       0.984260        26.7831 
  68   0.0000       1.009360        27.4661 
  69   0.0000       1.020353        27.7652 
  70   0.0000       1.052148        28.6304 
  71   0.0000       1.094637        29.7866 
  72   0.0000       1.122344        30.5405 
  73   0.0000       1.146378        31.1945 
  74   0.0000       1.222325        33.2612 
  75   0.0000       1.231598        33.5135 
  76   0.0000       1.301686        35.4207 
  77   0.0000       1.359632        36.9975 
  78   0.0000       1.464293        39.8455 
  79   0.0000       1.486769        40.4570 
  80   0.0000       1.500773        40.8381 
  81   0.0000       1.542047        41.9612 
  82   0.0000       1.547718        42.1155 
  83   0.0000       1.590474        43.2790 
  84   0.0000       1.600131        43.5418 
  85   0.0000       1.634791        44.4849 
  86   0.0000       1.679897        45.7123 
  87   0.0000       1.691142        46.0183 
  88   0.0000       1.722023        46.8586 
  89   0.0000       1.749464        47.6053 
  90   0.0000       1.768087        48.1121 
  91   0.0000       1.789095        48.6837 
  92   0.0000       1.820191        49.5299 
  93   0.0000       1.851409        50.3794 
  94   0.0000       1.869777        50.8792 
  95   0.0000       1.880906        51.1820 
  96   0.0000       1.933224        52.6057 
  97   0.0000       1.973774        53.7091 
  98   0.0000       2.000684        54.4414 
  99   0.0000       2.022780        55.0426 
 100   0.0000       2.058900        56.0255 
 101   0.0000       2.064300        56.1725 
 102   0.0000       2.110420        57.4274 
 103   0.0000       2.166297        58.9479 
 104   0.0000       2.177749        59.2596 
 105   0.0000       2.250518        61.2397 
 106   0.0000       2.264678        61.6250 
 107   0.0000       2.276839        61.9559 
 108   0.0000       2.300273        62.5936 
 109   0.0000       2.386851        64.9495 
 110   0.0000       2.422737        65.9260 
 111   0.0000       2.520013        68.5731 
 112   0.0000       2.550793        69.4106 
 113   0.0000       2.583827        70.3095 
 114   0.0000       2.653447        72.2040 
 115   0.0000       2.706694        73.6529 
 116   0.0000       2.742376        74.6238 
 117   0.0000       2.765374        75.2496 
 118   0.0000       2.800564        76.2072 
 119   0.0000       2.808073        76.4116 
 120   0.0000       2.833884        77.1139 
 121   0.0000       2.892556        78.7105 
 122   0.0000       2.916024        79.3491 
 123   0.0000       2.986859        81.2766 
 124   0.0000       3.024713        82.3066 
 125   0.0000       3.065811        83.4249 
 126   0.0000       3.072005        83.5935 
 127   0.0000       3.143904        85.5500 
 128   0.0000       3.178208        86.4834 
 129   0.0000       3.369675        91.6935 
 130   0.0000       3.421204        93.0957 
 131   0.0000       3.493356        95.0590 
 132   0.0000       3.779170       102.8364 

                    ********************************
                    * MULLIKEN POPULATION ANALYSIS *
                    ********************************

--------------------------------------------
MULLIKEN ATOMIC CHARGES AND SPIN POPULATIONS
--------------------------------------------
   0 O :   -0.240000    0.913521
   1 O :   -0.299575    0.078485
   2 C :    0.041936   -0.009661
   3 C :    0.048426    0.021646
   4 C :    0.028026   -0.020407
   5 C :   -0.116142    0.038987
   6 C :    0.076813   -0.001505
   7 H :    0.163429   -0.022922
   8 H :    0.049696    0.001949
   9 H :    0.047211    0.000412
  10 H :    0.035858    0.001095
  11 H :    0.026573   -0.001860
  12 H :    0.064820    0.000027
  13 H :    0.072928    0.000235
Sum of atomic charges         :   -0.0000000
Sum of atomic spin populations:    1.0000000

-----------------------------------------------------
MULLIKEN REDUCED ORBITAL CHARGES AND SPIN POPULATIONS
-----------------------------------------------------
CHARGE
  0 O s       :     3.863368  s :     3.863368
      pz      :     1.675090  p :     4.369520
      px      :     1.214695
      py      :     1.479736
      dz2     :     0.000555  d :     0.007112
      dxz     :     0.000372
      dyz     :     0.002931
      dx2y2   :     0.002638
      dxy     :     0.000615
  1 O s       :     3.860803  s :     3.860803
      pz      :     1.340358  p :     4.416361
      px      :     1.592555
      py      :     1.483448
      dz2     :     0.006526  d :     0.022410
      dxz     :     0.003539
      dyz     :     0.005566
      dx2y2   :     0.002959
      dxy     :     0.003820
  2 C s       :     3.171523  s :     3.171523
      pz      :     0.761096  p :     2.709727
      px      :     0.984739
      py      :     0.963892
      dz2     :     0.023706  d :     0.076813
      dxz     :     0.017160
      dyz     :     0.018821
      dx2y2   :     0.007061
      dxy     :     0.010066
  3 C s       :     3.183677  s :     3.183677
      pz      :     0.951678  p :     2.693756
      px      :     0.914637
      py      :     0.827441
      dz2     :     0.008660  d :     0.074141
      dxz     :     0.012575
      dyz     :     0.013940
      dx2y2   :     0.019257
      dxy     :     0.019710
  4 C s       :     3.152218  s :     3.152218
      pz      :     0.979005  p :     2.785331
      px      :     0.847536
      py      :     0.958790
      dz2     :     0.005836  d :     0.034424
      dxz     :     0.007457
      dyz     :     0.004960
      dx2y2   :     0.007643
      dxy     :     0.008527
  5 C s       :     3.218215  s :     3.218215
      pz      :     0.977732  p :     2.862108
      px      :     0.955604
      py      :     0.928773
      dz2     :     0.007587  d :     0.035818
      dxz     :     0.005725
      dyz     :     0.005276
      dx2y2   :     0.007715
      dxy     :     0.009515
  6 C s       :     2.956736  s :     2.956736
      pz      :     0.977717  p :     2.931904
      px      :     0.936562
      py      :     1.017626
      dz2     :     0.007969  d :     0.034546
      dxz     :     0.006900
      dyz     :     0.005255
      dx2y2   :     0.006934
      dxy     :     0.007488
  7 H s       :     0.769082  s :     0.769082
      pz      :     0.022838  p :     0.067488
      px      :     0.013180
      py      :     0.031470
  8 H s       :     0.928041  s :     0.928041
      pz      :     0.002629  p :     0.022263
      px      :     0.014134
      py      :     0.005499
  9 H s       :     0.930922  s :     0.930922
      pz      :     0.006405  p :     0.021867
      px      :     0.002750
      py      :     0.012712
 10 H s       :     0.940118  s :     0.940118
      pz      :     0.007820  p :     0.024024
      px      :     0.011602
      py      :     0.004602
 11 H s       :     0.948235  s :     0.948235
      pz      :     0.005049  p :     0.025193
      px      :     0.009051
      py      :     0.011093
 12 H s       :     0.911739  s :     0.911739
      pz      :     0.013344  p :     0.023441
      px      :     0.004656
      py      :     0.005440
 13 H s       :     0.903940  s :     0.903940
      pz      :     0.004326  p :     0.023132
      px      :     0.006233
      py      :     0.012573

SPIN
  0 O s       :     0.011909  s :     0.011909
      pz      :     0.118509  p :     0.901320
      px      :     0.750574
      py      :     0.032237
      dz2     :     0.000033  d :     0.000292
      dxz     :     0.000189
      dyz     :    -0.000013
      dx2y2   :    -0.000080
      dxy     :     0.000163
  1 O s       :     0.014304  s :     0.014304
      pz      :     0.014950  p :     0.063423
      px      :     0.043841
      py      :     0.004632
      dz2     :    -0.000115  d :     0.000758
      dxz     :     0.000345
      dyz     :     0.000025
      dx2y2   :     0.000101
      dxy     :     0.000402
  2 C s       :    -0.002204  s :    -0.002204
      pz      :    -0.005015  p :    -0.008129
      px      :    -0.001964
      py      :    -0.001150
      dz2     :     0.000061  d :     0.000672
      dxz     :     0.000586
      dyz     :    -0.000044
      dx2y2   :     0.000044
      dxy     :     0.000026
  3 C s       :     0.002055  s :     0.002055
      pz      :     0.010040  p :     0.018993
      px      :     0.003315
      py      :     0.005637
      dz2     :     0.000007  d :     0.000597
      dxz     :    -0.000073
      dyz     :    -0.000062
      dx2y2   :     0.000807
      dxy     :    -0.000082
  4 C s       :    -0.003398  s :    -0.003398
      pz      :    -0.011358  p :    -0.017457
      px      :     0.001797
      py      :    -0.007896
      dz2     :     0.000133  d :     0.000448
      dxz     :     0.000091
      dyz     :     0.000051
      dx2y2   :     0.000107
      dxy     :     0.000066
  5 C s       :     0.005325  s :     0.005325
      pz      :     0.018621  p :     0.033838
      px      :     0.005069
      py      :     0.010148
      dz2     :    -0.000070  d :    -0.000176
      dxz     :    -0.000028
      dyz     :    -0.000055
      dx2y2   :    -0.000034
      dxy     :     0.000010
  6 C s       :    -0.000731  s :    -0.000731
      pz      :    -0.000114  p :    -0.000859
      px      :    -0.001043
      py      :     0.000298
      dz2     :     0.000012  d :     0.000085
      dxz     :     0.000026
      dyz     :     0.000010
      dx2y2   :     0.000006
      dxy     :     0.000031
  7 H s       :    -0.028338  s :    -0.028338
      pz      :     0.000654  p :     0.005416
      px      :     0.004853
      py      :    -0.000092
  8 H s       :     0.002000  s :     0.002000
      pz      :    -0.000026  p :    -0.000051
      px      :    -0.000023
      py      :    -0.000002
  9 H s       :     0.000356  s :     0.000356
      pz      :     0.000017  p :     0.000056
      px      :    -0.000005
      py      :     0.000044
 10 H s       :     0.001188  s :     0.001188
      pz      :    -0.000035  p :    -0.000093
      px      :    -0.000012
      py      :    -0.000046
 11 H s       :    -0.002090  s :    -0.002090
      pz      :     0.000127  p :     0.000229
      px      :     0.000052
      py      :     0.000050
 12 H s       :     0.000008  s :     0.000008
      pz      :    -0.000003  p :     0.000019
      px      :     0.000019
      py      :     0.000003
 13 H s       :     0.000242  s :     0.000242
      pz      :    -0.000002  p :    -0.000008
      px      :    -0.000004
      py      :    -0.000002


                     *******************************
                     * LOEWDIN POPULATION ANALYSIS *
                     *******************************

-------------------------------------------
LOEWDIN ATOMIC CHARGES AND SPIN POPULATIONS
-------------------------------------------
   0 O :   -0.146500    0.870933
   1 O :   -0.096520    0.094003
   2 C :    0.053942   -0.004569
   3 C :    0.038362    0.018422
   4 C :   -0.050924   -0.013546
   5 C :   -0.000110    0.029862
   6 C :   -0.044187   -0.000101
   7 H :    0.044173    0.002606
   8 H :    0.025149    0.001007
   9 H :    0.026402    0.000686
  10 H :    0.033184    0.000242
  11 H :    0.023538    0.000099
  12 H :    0.043686    0.000220
  13 H :    0.049805    0.000135

----------------------------------------------------
LOEWDIN REDUCED ORBITAL CHARGES AND SPIN POPULATIONS
----------------------------------------------------
CHARGE
  0 O s       :     3.686895  s :     3.686895
      pz      :     1.681684  p :     4.446863
      px      :     1.212505
      py      :     1.552674
      dz2     :     0.000512  d :     0.012741
      dxz     :     0.000519
      dyz     :     0.005918
      dx2y2   :     0.005123
      dxy     :     0.000669
  1 O s       :     3.536249  s :     3.536249
      pz      :     1.408391  p :     4.521897
      px      :     1.576815
      py      :     1.536691
      dz2     :     0.010772  d :     0.038374
      dxz     :     0.005583
      dyz     :     0.010556
      dx2y2   :     0.004541
      dxy     :     0.006923
  2 C s       :     2.844747  s :     2.844747
      pz      :     0.860894  p :     2.930455
      px      :     1.051736
      py      :     1.017826
      dz2     :     0.048744  d :     0.170856
      dxz     :     0.040402
      dyz     :     0.042643
      dx2y2   :     0.014880
      dxy     :     0.024186
  3 C s       :     2.858183  s :     2.858183
      pz      :     1.011356  p :     2.939099
      px      :     0.982758
      py      :     0.944986
      dz2     :     0.018852  d :     0.164356
      dxz     :     0.028250
      dyz     :     0.030291
      dx2y2   :     0.045057
      dxy     :     0.041906
  4 C s       :     2.879838  s :     2.879838
      pz      :     1.024858  p :     3.081680
      px      :     1.016416
      py      :     1.040406
      dz2     :     0.012391  d :     0.089407
      dxz     :     0.019513
      dyz     :     0.014063
      dx2y2   :     0.020972
      dxy     :     0.022468
  5 C s       :     2.876586  s :     2.876586
      pz      :     0.997152  p :     3.034749
      px      :     0.997265
      py      :     1.040333
      dz2     :     0.015333  d :     0.088775
      dxz     :     0.014113
      dyz     :     0.014796
      dx2y2   :     0.021108
      dxy     :     0.023425
  6 C s       :     2.843848  s :     2.843848
      pz      :     1.040240  p :     3.111556
      px      :     1.015537
      py      :     1.055779
      dz2     :     0.020925  d :     0.088784
      dxz     :     0.017860
      dyz     :     0.013063
      dx2y2   :     0.018192
      dxy     :     0.018744
  7 H s       :     0.772547  s :     0.772547
      pz      :     0.061930  p :     0.183280
      px      :     0.034013
      py      :     0.087337
  8 H s       :     0.903989  s :     0.903989
      pz      :     0.011161  p :     0.070862
      px      :     0.041272
      py      :     0.018429
  9 H s       :     0.905911  s :     0.905911
      pz      :     0.019840  p :     0.067686
      px      :     0.011306
      py      :     0.036540
 10 H s       :     0.896588  s :     0.896588
      pz      :     0.022260  p :     0.070227
      px      :     0.034192
      py      :     0.013775
 11 H s       :     0.900612  s :     0.900612
      pz      :     0.016522  p :     0.075851
      px      :     0.028367
      py      :     0.030962
 12 H s       :     0.888461  s :     0.888461
      pz      :     0.038373  p :     0.067853
      px      :     0.013680
      py      :     0.015800
 13 H s       :     0.882810  s :     0.882810
      pz      :     0.012362  p :     0.067385
      px      :     0.018906
      py      :     0.036116

SPIN
  0 O s       :     0.009906  s :     0.009906
      pz      :     0.112761  p :     0.860951
      px      :     0.723369
      py      :     0.024820
      dz2     :    -0.000009  d :     0.000076
      dxz     :     0.000167
      dyz     :    -0.000218
      dx2y2   :     0.000124
      dxy     :     0.000013
  1 O s       :     0.018847  s :     0.018847
      pz      :     0.016398  p :     0.073878
      px      :     0.053507
      py      :     0.003973
      dz2     :    -0.000037  d :     0.001279
      dxz     :     0.000381
      dyz     :     0.000068
      dx2y2   :     0.000151
      dxy     :     0.000716
  2 C s       :    -0.000856  s :    -0.000856
      pz      :    -0.003133  p :    -0.005472
      px      :    -0.000738
      py      :    -0.001602
      dz2     :     0.000348  d :     0.001759
      dxz     :     0.001347
      dyz     :    -0.000108
      dx2y2   :     0.000130
      dxy     :     0.000043
  3 C s       :     0.001252  s :     0.001252
      pz      :     0.008997  p :     0.016477
      px      :     0.002503
      py      :     0.004977
      dz2     :    -0.000069  d :     0.000692
      dxz     :    -0.000136
      dyz     :    -0.000130
      dx2y2   :     0.001307
      dxy     :    -0.000279
  4 C s       :    -0.000245  s :    -0.000245
      pz      :    -0.008765  p :    -0.014432
      px      :     0.000622
      py      :    -0.006290
      dz2     :     0.000272  d :     0.001131
      dxz     :     0.000192
      dyz     :     0.000109
      dx2y2   :     0.000416
      dxy     :     0.000141
  5 C s       :     0.001068  s :     0.001068
      pz      :     0.016635  p :     0.029203
      px      :     0.004820
      py      :     0.007748
      dz2     :    -0.000186  d :    -0.000409
      dxz     :    -0.000042
      dyz     :    -0.000083
      dx2y2   :    -0.000082
      dxy     :    -0.000017
  6 C s       :    -0.000075  s :    -0.000075
      pz      :    -0.000062  p :    -0.000227
      px      :    -0.000351
      py      :     0.000186
      dz2     :     0.000029  d :     0.000201
      dxz     :     0.000073
      dyz     :     0.000028
      dx2y2   :     0.000007
      dxy     :     0.000065
  7 H s       :    -0.018917  s :    -0.018917
      pz      :     0.003848  p :     0.021523
      px      :     0.015670
      py      :     0.002006
  8 H s       :     0.001198  s :     0.001198
      pz      :    -0.000086  p :    -0.000191
      px      :    -0.000041
      py      :    -0.000064
  9 H s       :     0.000351  s :     0.000351
      pz      :     0.000211  p :     0.000335
      px      :     0.000041
      py      :     0.000083
 10 H s       :     0.000601  s :     0.000601
      pz      :    -0.000188  p :    -0.000358
      px      :    -0.000008
      py      :    -0.000163
 11 H s       :    -0.000846  s :    -0.000846
      pz      :     0.000484  p :     0.000945
      px      :     0.000196
      py      :     0.000265
 12 H s       :     0.000180  s :     0.000180
      pz      :    -0.000015  p :     0.000040
      px      :     0.000043
      py      :     0.000012
 13 H s       :     0.000158  s :     0.000158
      pz      :    -0.000002  p :    -0.000023
      px      :    -0.000017
      py      :    -0.000004


                      *****************************
                      * MAYER POPULATION ANALYSIS *
                      *****************************

  NA   - Mulliken gross atomic population
  ZA   - Total nuclear charge
  QA   - Mulliken gross atomic charge
  VA   - Mayer's total valence
  BVA  - Mayer's bonded valence
  FA   - Mayer's free valence

  ATOM       NA         ZA         QA         VA         BVA        FA
  0 O      8.2400     8.0000    -0.2400     2.0052     1.2214     0.7839
  1 O      8.2996     8.0000    -0.2996     2.0405     2.0319     0.0085
  2 C      5.9581     6.0000     0.0419     3.9779     3.9778     0.0001
  3 C      5.9516     6.0000     0.0484     3.9217     3.9213     0.0004
  4 C      5.9720     6.0000     0.0280     3.7968     3.7965     0.0004
  5 C      6.1161     6.0000    -0.1161     3.9694     3.9684     0.0010
  6 C      5.9232     6.0000     0.0768     3.8302     3.8302     0.0000
  7 H      0.8366     1.0000     0.1634     1.0151     1.0139     0.0012
  8 H      0.9503     1.0000     0.0497     1.0094     1.0094     0.0000
  9 H      0.9528     1.0000     0.0472     0.9866     0.9866     0.0000
 10 H      0.9641     1.0000     0.0359     0.9885     0.9885     0.0000
 11 H      0.9734     1.0000     0.0266     0.9920     0.9920     0.0000
 12 H      0.9352     1.0000     0.0648     0.9794     0.9794     0.0000
 13 H      0.9271     1.0000     0.0729     0.9826     0.9826     0.0000

  Mayer bond orders larger than 0.100000
B(  0-O ,  1-O ) :   0.1391 B(  0-O ,  7-H ) :   0.9918 B(  1-O ,  2-C ) :   0.9171 
B(  1-O ,  3-C ) :   0.8991 B(  2-C ,  3-C ) :   1.0156 B(  2-C ,  6-C ) :   1.0087 
B(  2-C ,  8-H ) :   0.9633 B(  3-C ,  4-C ) :   0.9840 B(  3-C ,  9-H ) :   0.9722 
B(  4-C ,  5-C ) :   1.8314 B(  4-C , 10-H ) :   0.9944 B(  5-C ,  6-C ) :   1.0148 
B(  5-C , 11-H ) :   0.9790 B(  6-C , 12-H ) :   0.9307 B(  6-C , 13-H ) :   0.9264 



------------------
HIRSHFELD ANALYSIS
------------------

Total integrated alpha density =     27.000016432
Total integrated beta density  =     26.000018297

  ATOM     CHARGE      SPIN    
   0 O   -0.244419    0.840327
   1 O   -0.131392    0.099621
   2 C    0.052420   -0.000361
   3 C    0.040389    0.016515
   4 C   -0.049376   -0.006765
   5 C   -0.023127    0.023525
   6 C   -0.037551    0.001479
   7 H    0.132805    0.021675
   8 H    0.047569    0.001117
   9 H    0.047374    0.000889
  10 H    0.043579   -0.000407
  11 H    0.040888    0.001686
  12 H    0.036864    0.000450
  13 H    0.043942    0.000248

  TOTAL  -0.000035    0.999998

-------
TIMINGS
-------

Total SCF time: 0 days 0 hours 1 min 16 sec 

Total time                  ....      76.552 sec
Sum of individual times     ....      76.388 sec  ( 99.8%)

Fock matrix formation       ....      74.459 sec  ( 97.3%)
  Split-RI-J                ....       4.437 sec  (  6.0% of F)
  Chain of spheres X        ....      51.259 sec  ( 68.8% of F)
  XC integration            ....      18.758 sec  ( 25.2% of F)
    Basis function eval.    ....       5.590 sec  ( 29.8% of XC)
    Density eval.           ....       5.233 sec  ( 27.9% of XC)
    XC-Functional eval.     ....       1.906 sec  ( 10.2% of XC)
    XC-Potential eval.      ....       5.606 sec  ( 29.9% of XC)
Diagonalization             ....       0.122 sec  (  0.2%)
Density matrix formation    ....       0.010 sec  (  0.0%)
Population analysis         ....       0.389 sec  (  0.5%)
Initial guess               ....       0.216 sec  (  0.3%)
Orbital Transformation      ....       0.000 sec  (  0.0%)
Orbital Orthonormalization  ....       0.000 sec  (  0.0%)
DIIS solution               ....       0.032 sec  (  0.0%)
Grid generation             ....       1.160 sec  (  1.5%)

Maximum memory used throughout the entire SCF-calculation: 63.4 MB


-------------------------------------------------------------------------------
                          DFT DISPERSION CORRECTION                            
                                                                               
                              DFTD3 V3.1  Rev 1                                
                          USING Becke-Johnson damping                          
-------------------------------------------------------------------------------
The PBE0 functional is recognized
Active option DFTDOPT                   ...         4   

molecular C6(AA) [au] = 1741.272358 


            DFT-D V3
 parameters
 s6 scaling factor         :     1.0000 
 a1 scaling factor         :     0.4145 
 s8 scaling factor         :     1.2177 
 a2 scaling factor         :     4.8593 
 ad hoc parameters k1-k3   :    16.0000     1.3333    -4.0000 

 Edisp/kcal,au: -6.152977702852  -0.009805393067 
 E6   /kcal   :  -3.914233080 
 E8   /kcal   :  -2.238744623 
 % E8         :  36.384734857 

-------------------------   ----------------
Dispersion correction           -0.009805393
-------------------------   ----------------


-------------------------   --------------------
FINAL SINGLE POINT ENERGY      -344.371420646967
-------------------------   --------------------

------------------------------------------------------------------------------
                         ORCA SCF GRADIENT CALCULATION
------------------------------------------------------------------------------

 ... reading COSX grid (gridx3)
Gradient of the Kohn-Sham DFT energy:
Kohn-Sham wavefunction type      ... UKS
Hartree-Fock exchange scaling    ...    0.250
Number of operators              ...    2
Number of atoms                  ...   14
Basis set dimensions             ...  133
Integral neglect threshold       ... 2.5e-11
Integral primitive cutoff        ... 2.5e-12
SHARK Integral package           ... ON

Nuc. rep. gradient       (SHARK) ... done (  0.0 sec)
HCore & Overlap gradient (SHARK) ... done (  0.1 sec)
RI-J gradient            (SHARK) ... done (  0.6 sec)
COSX-gradient                    ... done (  6.8 sec)
Exchange-correlation gradient    ... done
Dispersion correction            ... done

------------------
CARTESIAN GRADIENT
------------------

   1   O   :    0.022045726    0.003493008   -0.007579856
   2   O   :    0.015805759   -0.001501937   -0.016678798
   3   C   :    0.001965043   -0.000774110    0.005810633
   4   C   :   -0.022135146   -0.012498780   -0.008312480
   5   C   :   -0.005368759   -0.012105140   -0.005243877
   6   C   :    0.019309237   -0.006438290    0.017049675
   7   C   :   -0.014122921    0.007101151   -0.002181385
   8   H   :    0.001924539    0.001267380   -0.002037457
   9   H   :    0.000809796    0.001121274    0.001194827
  10   H   :   -0.001808001    0.005500223    0.006501580
  11   H   :    0.001398030    0.001098631    0.000867221
  12   H   :   -0.019359681    0.014108626    0.007459634
  13   H   :    0.003973544   -0.000688269    0.002652619
  14   H   :   -0.004675307    0.000431827    0.000469484

Difference to translation invariance:
           :   -0.0002381418    0.0001155937   -0.0000281809

Difference to rotation invariance:
           :    0.0000448220   -0.0003288824   -0.0002189505

Norm of the cartesian gradient     ...    0.0613961832
RMS gradient                       ...    0.0094736367
MAX gradient                       ...    0.0221351460

-------
TIMINGS
-------

Total SCF gradient time            ...       11.643 sec

One electron gradient       ....       0.098 sec  (  0.8%)
RI-J Coulomb gradient       ....       0.604 sec  (  5.2%)
COSX gradient               ....       6.832 sec  ( 58.7%)
XC gradient                 ....       3.792 sec  ( 32.6%)

Maximum memory used throughout the entire SCFGRAD-calculation: 50.2 MB

                            ***************************************
                            *     ORCA property calculations      *
                            ***************************************

                                    ---------------------
                                    Active property flags
                                    ---------------------
   (+) Dipole Moment


------------------------------------------------------------------------------
                       ORCA ELECTRIC PROPERTIES CALCULATION
------------------------------------------------------------------------------

Dipole Moment Calculation                       ... on
Quadrupole Moment Calculation                   ... off
Polarizability Calculation                      ... off
GBWName                                         ... 10_2_orca.gbw
Electron density                                ... 10_2_orca.scfp
The origin for moment calculation is the CENTER OF MASS  = (-0.296092, -0.106530  0.409096)

-------------
DIPOLE MOMENT
-------------
                                X             Y             Z
Electronic contribution:     -0.80442       0.28039       1.90430
Nuclear contribution   :      1.32501       0.59652      -2.35779
                        -----------------------------------------
Total Dipole Moment    :      0.52059       0.87691      -0.45349
                        -----------------------------------------
Magnitude (a.u.)       :      1.11608
Magnitude (Debye)      :      2.83686



--------------------
Rotational spectrum 
--------------------
 
Rotational constants in cm-1:     0.183226     0.069855     0.060643 
Rotational constants in MHz :  5492.982944  2094.212574  1818.027959 

 Dipole components along the rotational axes: 
x,y,z [a.u.] :     0.728815     0.372508     0.758755 
x,y,z [Debye]:     1.852501     0.946840     1.928601 

 

Timings for individual modules:

Sum of individual times         ...       88.410 sec (=   1.473 min)
GTO integral calculation        ...        0.161 sec (=   0.003 min)   0.2 %
SCF iterations                  ...       76.576 sec (=   1.276 min)  86.6 %
SCF Gradient evaluation         ...       11.672 sec (=   0.195 min)  13.2 %
                             ****ORCA TERMINATED NORMALLY****
TOTAL RUN TIME: 0 days 0 hours 1 minutes 28 seconds 567 msec
