
                                 *****************
                                 * O   R   C   A *
                                 *****************

                                            #,                                       
                                            ###                                      
                                            ####                                     
                                            #####                                    
                                            ######                                   
                                           ########,                                 
                                     ,,################,,,,,                         
                               ,,#################################,,                 
                          ,,##########################################,,             
                       ,#########################################, ''#####,          
                    ,#############################################,,   '####,        
                  ,##################################################,,,,####,       
                ,###########''''           ''''###############################       
              ,#####''   ,,,,##########,,,,          '''####'''          '####       
            ,##' ,,,,###########################,,,                        '##       
           ' ,,###''''                  '''############,,,                           
         ,,##''                                '''############,,,,        ,,,,,,###''
      ,#''                                            '''#######################'''  
     '                                                          ''''####''''         
             ,#######,   #######,   ,#######,      ##                                
            ,#'     '#,  ##    ##  ,#'     '#,    #''#        ######   ,####,        
            ##       ##  ##   ,#'  ##            #'  '#       #        #'  '#        
            ##       ##  #######   ##           ,######,      #####,   #    #        
            '#,     ,#'  ##    ##  '#,     ,#' ,#      #,         ##   #,  ,#        
             '#######'   ##     ##  '#######'  #'      '#     #####' # '####'        



                  #######################################################
                  #                        -***-                        #
                  #          Department of theory and spectroscopy      #
                  #    Directorship and core code : Frank Neese         #
                  #        Max Planck Institute fuer Kohlenforschung    #
                  #                Kaiser Wilhelm Platz 1               #
                  #                 D-45470 Muelheim/Ruhr               #
                  #                      Germany                        #
                  #                                                     #
                  #                  All rights reserved                #
                  #                        -***-                        #
                  #######################################################


                         Program Version 5.0.4 -  RELEASE  -


 With contributions from (in alphabetic order):
   Daniel Aravena         : Magnetic Suceptibility
   Michael Atanasov       : Ab Initio Ligand Field Theory (pilot matlab implementation)
   Alexander A. Auer      : GIAO ZORA, VPT2 properties, NMR spectrum
   Ute Becker             : Parallelization
   Giovanni Bistoni       : ED, misc. LED, open-shell LED, HFLD
   Martin Brehm           : Molecular dynamics
   Dmytro Bykov           : SCF Hessian
   Vijay G. Chilkuri      : MRCI spin determinant printing, contributions to CSF-ICE
   Dipayan Datta          : RHF DLPNO-CCSD density
   Achintya Kumar Dutta   : EOM-CC, STEOM-CC
   Dmitry Ganyushin       : Spin-Orbit,Spin-Spin,Magnetic field MRCI
   Miquel Garcia          : C-PCM and meta-GGA Hessian, CC/C-PCM, Gaussian charge scheme
   Yang Guo               : DLPNO-NEVPT2, F12-NEVPT2, CIM, IAO-localization
   Andreas Hansen         : Spin unrestricted coupled pair/coupled cluster methods
   Benjamin Helmich-Paris : MC-RPA, TRAH-SCF, COSX integrals
   Lee Huntington         : MR-EOM, pCC
   Robert Izsak           : Overlap fitted RIJCOSX, COSX-SCS-MP3, EOM
   Marcus Kettner         : VPT2
   Christian Kollmar      : KDIIS, OOCD, Brueckner-CCSD(T), CCSD density, CASPT2, CASPT2-K
   Simone Kossmann        : Meta GGA functionals, TD-DFT gradient, OOMP2, MP2 Hessian
   Martin Krupicka        : Initial AUTO-CI
   Lucas Lang             : DCDCAS
   Marvin Lechner         : AUTO-CI (C++ implementation), FIC-MRCC
   Dagmar Lenk            : GEPOL surface, SMD
   Dimitrios Liakos       : Extrapolation schemes; Compound Job, initial MDCI parallelization
   Dimitrios Manganas     : Further ROCIS development; embedding schemes
   Dimitrios Pantazis     : SARC Basis sets
   Anastasios Papadopoulos: AUTO-CI, single reference methods and gradients
   Taras Petrenko         : DFT Hessian,TD-DFT gradient, ASA, ECA, R-Raman, ABS, FL, XAS/XES, NRVS
   Peter Pinski           : DLPNO-MP2, DLPNO-MP2 Gradient
   Christoph Reimann      : Effective Core Potentials
   Marius Retegan         : Local ZFS, SOC
   Christoph Riplinger    : Optimizer, TS searches, QM/MM, DLPNO-CCSD(T), (RO)-DLPNO pert. Triples
   Tobias Risthaus        : Range-separated hybrids, TD-DFT gradient, RPA, STAB
   Michael Roemelt        : Original ROCIS implementation
   Masaaki Saitow         : Open-shell DLPNO-CCSD energy and density
   Barbara Sandhoefer     : DKH picture change effects
   Avijit Sen             : IP-ROCIS
   Kantharuban Sivalingam : CASSCF convergence, NEVPT2, FIC-MRCI
   Bernardo de Souza      : ESD, SOC TD-DFT
   Georgi Stoychev        : AutoAux, RI-MP2 NMR, DLPNO-MP2 response
   Willem Van den Heuvel  : Paramagnetic NMR
   Boris Wezisla          : Elementary symmetry handling
   Frank Wennmohs         : Technical directorship


 We gratefully acknowledge several colleagues who have allowed us to
 interface, adapt or use parts of their codes:
   Stefan Grimme, W. Hujo, H. Kruse, P. Pracht,  : VdW corrections, initial TS optimization,
                  C. Bannwarth, S. Ehlert          DFT functionals, gCP, sTDA/sTD-DF
   Ed Valeev, F. Pavosevic, A. Kumar             : LibInt (2-el integral package), F12 methods
   Garnet Chan, S. Sharma, J. Yang, R. Olivares  : DMRG
   Ulf Ekstrom                                   : XCFun DFT Library
   Mihaly Kallay                                 : mrcc  (arbitrary order and MRCC methods)
   Jiri Pittner, Ondrej Demel                    : Mk-CCSD
   Frank Weinhold                                : gennbo (NPA and NBO analysis)
   Christopher J. Cramer and Donald G. Truhlar   : smd solvation model
   Lars Goerigk                                  : TD-DFT with DH, B97 family of functionals
   V. Asgeirsson, H. Jonsson                     : NEB implementation
   FAccTs GmbH                                   : IRC, NEB, NEB-TS, DLPNO-Multilevel, CI-OPT
                                                   MM, QMMM, 2- and 3-layer-ONIOM, Crystal-QMMM,
                                                   LR-CPCM, SF, NACMEs, symmetry and pop. for TD-DFT,
                                                   nearIR, NL-DFT gradient (VV10), updates on ESD,
                                                   ML-optimized integration grids
   S Lehtola, MJT Oliveira, MAL Marques          : LibXC Library
   Liviu Ungur et al                             : ANISO software


 Your calculation uses the libint2 library for the computation of 2-el integrals
 For citations please refer to: http://libint.valeyev.net

 Your ORCA version has been built with support for libXC version: 5.1.0
 For citations please refer to: https://tddft.org/programs/libxc/

 This ORCA versions uses:
   CBLAS   interface :  Fast vector & matrix operations
   LAPACKE interface :  Fast linear algebra routines
   SCALAPACK package :  Parallel linear algebra routines
   Shared memory     :  Shared parallel matrices
   BLAS/LAPACK       :  OpenBLAS 0.3.15  USE64BITINT DYNAMIC_ARCH NO_AFFINITY SkylakeX SINGLE_THREADED
        Core in use  :  SkylakeX
   Copyright (c) 2011-2014, The OpenBLAS Project


Your calculation utilizes the atom-pairwise dispersion correction
with the Becke-Johnson damping scheme (D3BJ)
Cite in your paper:
S.Grimme, S.Ehrlich, L.Goerigk, J Comput Chem, (2011), 32, 1456–1465 
S.Grimme, J.Antony, S.Ehrlich and H.Krieg, J.Chem.Phys., 132, (2010), 154104 
   

================================================================================

----- Orbital basis set information -----
Your calculation utilizes the basis: def2-SVP
   F. Weigend and R. Ahlrichs, Phys. Chem. Chem. Phys. 7, 3297 (2005).

----- AuxJ basis set information -----
Your calculation utilizes the auxiliary basis: def2/J
   F. Weigend, Phys. Chem. Chem. Phys. 8, 1057 (2006).

================================================================================
                                        WARNINGS
                       Please study these warnings very carefully!
================================================================================


WARNING: your system is open-shell and RHF/RKS was chosen
  ===> : WILL SWITCH to UHF/UKS


INFO   : the flag for use of the SHARK integral package has been found!

================================================================================
                                       INPUT FILE
================================================================================
NAME = 12_1_orca.inp
|  1> ! EnGrad PBE0 RIJCOSX D3BJ def2-SVP def2/J 
|  2> %output 
|  3> xyzfile=True 
|  4> end 
|  5> %scf 
|  6> maxiter 250 
|  7> end
|  8> %output
|  9> Print[P_Hirshfeld] = 1
| 10> end
| 11> % maxcore
| 12> 4000
| 13> *xyz 0 2
| 14> O   -2.38302525  -0.37450706   1.72367665 
| 15> O   -0.56085874  -0.25904619   0.90893769 
| 16> C   -0.73930698   0.23153709  -0.41730171 
| 17> C    0.16859341   0.91321938   0.53788098 
| 18> C    1.53281145   0.41871928   0.28055949 
| 19> C    1.47523779  -0.63909863  -0.62620550 
| 20> C    0.07987151  -0.64598027  -1.30692136 
| 21> H   -2.18090289   0.49613110   2.11321815 
| 22> H   -1.74823979   0.58186302  -0.63884111 
| 23> H   -0.10012014   1.81370859   1.09605736 
| 24> H    2.43013179   0.68294872   0.83554079 
| 25> H    2.16921155  -1.31703910  -0.79008226 
| 26> H    0.22790690  -0.25646615  -2.33146625 
| 27> H   -0.37114472  -1.64578938  -1.38484352 
| 28> *
| 29> 
| 30>                          ****END OF INPUT****
================================================================================

                     *******************************
                     * Energy+Gradient Calculation *
                     *******************************

---------------------------------
CARTESIAN COORDINATES (ANGSTROEM)
---------------------------------
  O     -2.383025   -0.374507    1.723677
  O     -0.560859   -0.259046    0.908938
  C     -0.739307    0.231537   -0.417302
  C      0.168593    0.913219    0.537881
  C      1.532811    0.418719    0.280559
  C      1.475238   -0.639099   -0.626205
  C      0.079872   -0.645980   -1.306921
  H     -2.180903    0.496131    2.113218
  H     -1.748240    0.581863   -0.638841
  H     -0.100120    1.813709    1.096057
  H      2.430132    0.682949    0.835541
  H      2.169212   -1.317039   -0.790082
  H      0.227907   -0.256466   -2.331466
  H     -0.371145   -1.645789   -1.384844

----------------------------
CARTESIAN COORDINATES (A.U.)
----------------------------
  NO LB      ZA    FRAG     MASS         X           Y           Z
   0 O     8.0000    0    15.999   -4.503265   -0.707716    3.257277
   1 O     8.0000    0    15.999   -1.059869   -0.489526    1.717643
   2 C     6.0000    0    12.011   -1.397088    0.437542   -0.788586
   3 C     6.0000    0    12.011    0.318595    1.725735    1.016448
   4 C     6.0000    0    12.011    2.896594    0.791265    0.530181
   5 C     6.0000    0    12.011    2.787795   -1.207721   -1.183357
   6 C     6.0000    0    12.011    0.150935   -1.220726   -2.469723
   7 H     1.0000    0     1.008   -4.121309    0.937552    3.993404
   8 H     1.0000    0     1.008   -3.303694    1.099562   -1.207235
   9 H     1.0000    0     1.008   -0.189200    3.427413    2.071248
  10 H     1.0000    0     1.008    4.592284    1.290586    1.578943
  11 H     1.0000    0     1.008    4.099216   -2.488843   -1.493039
  12 H     1.0000    0     1.008    0.430682   -0.484651   -4.405833
  13 H     1.0000    0     1.008   -0.701362   -3.110091   -2.616975

--------------------------------
INTERNAL COORDINATES (ANGSTROEM)
--------------------------------
 O      0   0   0     0.000000000000     0.00000000     0.00000000
 O      1   0   0     1.999355289989     0.00000000     0.00000000
 C      2   1   0     1.425281261747   106.55614771     0.00000000
 C      2   1   3     1.429681813476   128.17867903    67.88107499
 C      4   2   1     1.473714883815   104.03395560   167.85165730
 C      5   4   2     1.394459108089   109.26040418    52.75545499
 C      3   2   1     1.494159709417   106.45325379   226.93926736
 H      1   2   3     0.974990684203    85.54404224   263.23918586
 H      3   2   1     1.090758166633   114.54144296     9.47526318
 H      4   2   1     1.092999844680   114.68010848    25.87308198
 H      5   4   2     1.087660440069   126.37684579   243.88086376
 H      6   5   4     0.983899615256   127.00448538   198.56208080
 H      7   3   2     1.106041571550   114.71331887   193.25758565
 H      7   3   2     1.099593451773   110.56809366    70.80792442

---------------------------
INTERNAL COORDINATES (A.U.)
---------------------------
 O      0   0   0     0.000000000000     0.00000000     0.00000000
 O      1   0   0     3.778233942487     0.00000000     0.00000000
 C      2   1   0     2.693391248511   106.55614771     0.00000000
 C      2   1   3     2.701707086117   128.17867903    67.88107499
 C      4   2   1     2.784917529894   104.03395560   167.85165730
 C      5   4   2     2.635145819240   109.26040418    52.75545499
 C      3   2   1     2.823552651138   106.45325379   226.93926736
 H      1   2   3     1.842465376268    85.54404224   263.23918586
 H      3   2   1     2.061234213275   114.54144296     9.47526318
 H      4   2   1     2.065470370863   114.68010848    25.87308198
 H      5   4   2     2.055380358430   126.37684579   243.88086376
 H      6   5   4     1.859300816104   127.00448538   198.56208080
 H      7   3   2     2.090115662961   114.71331887   193.25758565
 H      7   3   2     2.077930482504   110.56809366    70.80792442

---------------------
BASIS SET INFORMATION
---------------------
There are 3 groups of distinct atoms

 Group   1 Type O   : 7s4p1d contracted to 3s2p1d pattern {511/31/1}
 Group   2 Type C   : 7s4p1d contracted to 3s2p1d pattern {511/31/1}
 Group   3 Type H   : 4s1p contracted to 2s1p pattern {31/1}

Atom   0O    basis set group =>   1
Atom   1O    basis set group =>   1
Atom   2C    basis set group =>   2
Atom   3C    basis set group =>   2
Atom   4C    basis set group =>   2
Atom   5C    basis set group =>   2
Atom   6C    basis set group =>   2
Atom   7H    basis set group =>   3
Atom   8H    basis set group =>   3
Atom   9H    basis set group =>   3
Atom  10H    basis set group =>   3
Atom  11H    basis set group =>   3
Atom  12H    basis set group =>   3
Atom  13H    basis set group =>   3
---------------------------------
AUXILIARY/J BASIS SET INFORMATION
---------------------------------
There are 3 groups of distinct atoms

 Group   1 Type O   : 12s5p4d2f1g contracted to 6s4p3d1f1g pattern {711111/2111/211/2/1}
 Group   2 Type C   : 12s5p4d2f1g contracted to 6s4p3d1f1g pattern {711111/2111/211/2/1}
 Group   3 Type H   : 5s2p1d contracted to 3s1p1d pattern {311/2/1}

Atom   0O    basis set group =>   1
Atom   1O    basis set group =>   1
Atom   2C    basis set group =>   2
Atom   3C    basis set group =>   2
Atom   4C    basis set group =>   2
Atom   5C    basis set group =>   2
Atom   6C    basis set group =>   2
Atom   7H    basis set group =>   3
Atom   8H    basis set group =>   3
Atom   9H    basis set group =>   3
Atom  10H    basis set group =>   3
Atom  11H    basis set group =>   3
Atom  12H    basis set group =>   3
Atom  13H    basis set group =>   3
------------------------------------------------------------------------------
                           ORCA GTO INTEGRAL CALCULATION
                           -- RI-GTO INTEGRALS CHOSEN --
------------------------------------------------------------------------------
------------------------------------------------------------------------------
                   ___                                                        
                  /   \      - P O W E R E D   B Y -                         
                 /     \                                                     
                 |  |  |   _    _      __       _____    __    __             
                 |  |  |  | |  | |    /  \     |  _  \  |  |  /  |          
                  \  \/   | |  | |   /    \    | | | |  |  | /  /          
                 / \  \   | |__| |  /  /\  \   | |_| |  |  |/  /          
                |  |  |   |  __  | /  /__\  \  |    /   |      \           
                |  |  |   | |  | | |   __   |  |    \   |  |\   \          
                \     /   | |  | | |  |  |  |  | |\  \  |  | \   \       
                 \___/    |_|  |_| |__|  |__|  |_| \__\ |__|  \__/        
                                                                              
                      - O R C A' S   B I G   F R I E N D -                    
                                      &                                       
                       - I N T E G R A L  F E E D E R -                       
                                                                              
 v1 FN, 2020, v2 2021                                                         
------------------------------------------------------------------------------


Reading SHARK input file 12_1_orca.SHARKINP.tmp ... ok
----------------------
SHARK INTEGRAL PACKAGE
----------------------

Number of atoms                             ...     14
Number of basis functions                   ...    133
Number of shells                            ...     63
Maximum angular momentum                    ...      2
Integral batch strategy                     ... SHARK/LIBINT Hybrid
RI-J (if used) integral strategy            ... SPLIT-RIJ (Revised 2003 algorithm where possible)
Printlevel                                  ...      1
Contraction scheme used                     ... SEGMENTED contraction
Coulomb Range Separation                    ... NOT USED
Exchange Range Separation                   ... NOT USED
Finite Nucleus Model                        ... NOT USED
Auxiliary Coulomb fitting basis             ... AVAILABLE
   # of basis functions in Aux-J            ...    420
   # of shells in Aux-J                     ...    140
   Maximum angular momentum in Aux-J        ...      4
Auxiliary J/K fitting basis                 ... NOT available
Auxiliary Correlation fitting basis         ... NOT available
Auxiliary 'external' fitting basis          ... NOT available
Integral threshold                          ...     2.500000e-11
Primitive cut-off                           ...     2.500000e-12
Primitive pair pre-selection threshold      ...     2.500000e-12

Calculating pre-screening integrals         ... done (  0.0 sec) Dimension = 63
Organizing shell pair data                  ... done (  0.0 sec)
Shell pair information
Total number of shell pairs                 ...      2016
Shell pairs after pre-screening             ...      1947
Total number of primitive shell pairs       ...      7252
Primitive shell pairs kept                  ...      5346
          la=0 lb=0:    606 shell pairs
          la=1 lb=0:    710 shell pairs
          la=1 lb=1:    225 shell pairs
          la=2 lb=0:    236 shell pairs
          la=2 lb=1:    143 shell pairs
          la=2 lb=2:     27 shell pairs

Calculating one electron integrals          ... done (  0.0 sec)
Calculating RI/J V-Matrix + Cholesky decomp.... done (  0.0 sec)
Calculating Nuclear repulsion               ... done (  0.0 sec) ENN=    300.533277069798 Eh

SHARK setup successfully completed in   0.1 seconds

Maximum memory used throughout the entire GTOINT-calculation: 16.8 MB
-------------------------------------------------------------------------------
                                 ORCA SCF
-------------------------------------------------------------------------------

------------
SCF SETTINGS
------------
Hamiltonian:
 Density Functional     Method          .... DFT(GTOs)
 Exchange Functional    Exchange        .... PBE
   PBE kappa parameter   XKappa         ....  0.804000
   PBE mue parameter    XMuePBE         ....  0.219520
 Correlation Functional Correlation     .... PBE
   PBE beta parameter  CBetaPBE         ....  0.066725
 LDA part of GGA corr.  LDAOpt          .... PW91-LDA
 Gradients option       PostSCFGGA      .... off
 Hybrid DFT is turned on
   Fraction HF Exchange ScalHFX         ....  0.250000
   Scaling of DF-GGA-X  ScalDFX         ....  0.750000
   Scaling of DF-GGA-C  ScalDFC         ....  1.000000
   Scaling of DF-LDA-C  ScalLDAC        ....  1.000000
   Perturbative correction              ....  0.000000
   Density functional embedding theory  .... OFF
   NL short-range parameter             ....  6.900000
 RI-approximation to the Coulomb term is turned on
   Number of AuxJ basis functions       .... 420
   RIJ-COSX (HFX calculated with COS-X)).... on


General Settings:
 Integral files         IntName         .... 12_1_orca
 Hartree-Fock type      HFTyp           .... UHF
 Total Charge           Charge          ....    0
 Multiplicity           Mult            ....    2
 Number of Electrons    NEL             ....   53
 Basis Dimension        Dim             ....  133
 Nuclear Repulsion      ENuc            ....    300.5332770698 Eh

Convergence Acceleration:
 DIIS                   CNVDIIS         .... on
   Start iteration      DIISMaxIt       ....    12
   Startup error        DIISStart       ....  0.200000
   # of expansion vecs  DIISMaxEq       ....     5
   Bias factor          DIISBfac        ....   1.050
   Max. coefficient     DIISMaxC        ....  10.000
 Trust-Rad. Augm. Hess. CNVTRAH         .... auto
   Auto Start mean grad. ratio tolernc. ....  1.125000
   Auto Start start iteration           ....    20
   Auto Start num. interpolation iter.  ....    10
   Max. Number of Micro iterations      ....    16
   Max. Number of Macro iterations      .... Maxiter - #DIIS iter
   Number of Davidson start vectors     ....     2
   Converg. threshold I  (grad. norm)   ....   1.000e-05
   Converg. threshold II (energy diff.) ....   1.000e-08
   Grad. Scal. Fac. for Micro threshold ....   0.100
   Minimum threshold for Micro iter.    ....   0.010
   NR start threshold (gradient norm)   ....   0.001
   Initial trust radius                 ....   0.400
   Minimum AH scaling param. (alpha)    ....   1.000
   Maximum AH scaling param. (alpha)    .... 1000.000
   Orbital update algorithm             .... Taylor
   White noise on init. David. guess    .... on
   Maximum white noise                  ....   0.010
   Quad. conv. algorithm                .... NR
 SOSCF                  CNVSOSCF        .... off
 Level Shifting         CNVShift        .... on
   Level shift para.    LevelShift      ....    0.2500
   Turn off err/grad.   ShiftErr        ....    0.0010
 Zerner damping         CNVZerner       .... off
 Static damping         CNVDamp         .... on
   Fraction old density DampFac         ....    0.7000
   Max. Damping (<1)    DampMax         ....    0.9800
   Min. Damping (>=0)   DampMin         ....    0.0000
   Turn off err/grad.   DampErr         ....    0.1000
 Fernandez-Rico         CNVRico         .... off

SCF Procedure:
 Maximum # iterations   MaxIter         ....   250
 SCF integral mode      SCFMode         .... Direct
   Integral package                     .... SHARK and LIBINT hybrid scheme
 Reset frequency        DirectResetFreq ....    20
 Integral Threshold     Thresh          ....  2.500e-11 Eh
 Primitive CutOff       TCut            ....  2.500e-12 Eh

Convergence Tolerance:
 Convergence Check Mode ConvCheckMode   .... Total+1el-Energy
 Convergence forced     ConvForced      .... 0
 Energy Change          TolE            ....  1.000e-08 Eh
 1-El. energy change                    ....  1.000e-05 Eh
 DIIS Error             TolErr          ....  5.000e-07


Diagonalization of the overlap matrix:
Smallest eigenvalue                        ... 7.869e-04
Time for diagonalization                   ...    0.002 sec
Threshold for overlap eigenvalues          ... 1.000e-08
Number of eigenvalues below threshold      ... 0
Time for construction of square roots      ...    0.001 sec
Total time needed                          ...    0.003 sec

Time for model grid setup =    0.119 sec

------------------------------
INITIAL GUESS: MODEL POTENTIAL
------------------------------
Loading Hartree-Fock densities                     ... done
Calculating cut-offs                               ... done
Initializing the effective Hamiltonian             ... done
Setting up the integral package (SHARK)            ... done
Starting the Coulomb interaction                   ... done (   0.1 sec)
Reading the grid                                   ... done
Mapping shells                                     ... done
Starting the XC term evaluation                    ... done (   0.1 sec)
  promolecular density results
     # of electrons  =     52.997660797
     EX              =    -43.882551331
     EC              =     -1.756363941
     EX+EC           =    -45.638915272
Transforming the Hamiltonian                       ... done (   0.0 sec)
Diagonalizing the Hamiltonian                      ... done (   0.0 sec)
Back transforming the eigenvectors                 ... done (   0.0 sec)
Now organizing SCF variables                       ... done
                      ------------------
                      INITIAL GUESS DONE (   0.3 sec)
                      ------------------
-------------------
DFT GRID GENERATION
-------------------

General Integration Accuracy     IntAcc      ... 4.388
Radial Grid Type                 RadialGrid  ... OptM3 with GC (2021)
Angular Grid (max. ang.)         AngularGrid ... 4 (Lebedev-302)
Angular grid pruning method      GridPruning ... 4 (adaptive)
Weight generation scheme         WeightScheme... Becke
Basis function cutoff            BFCut       ... 1.0000e-11
Integration weight cutoff        WCut        ... 1.0000e-14
Angular grids for H and He will be reduced by one unit
Partially contracted basis set               ... off
Rotationally invariant grid construction     ... off

Total number of grid points                  ...    64859
Total number of batches                      ...     1019
Average number of points per batch           ...       63
Average number of grid points per atom       ...     4633
Time for grid setup =    0.490 sec

--------------------
COSX GRID GENERATION
--------------------

GRIDX 1
-------
General Integration Accuracy     IntAcc      ... 3.816
Radial Grid Type                 RadialGrid  ... OptM3 with GC (2021)
Angular Grid (max. ang.)         AngularGrid ... 1 (Lebedev-50)
Angular grid pruning method      GridPruning ... 4 (adaptive)
Weight generation scheme         WeightScheme... Becke
Basis function cutoff            BFCut       ... 1.0000e-11
Integration weight cutoff        WCut        ... 1.0000e-14
Angular grids for H and He will be reduced by one unit
Partially contracted basis set               ... on
Rotationally invariant grid construction     ... off

Total number of grid points                  ...     8301
Total number of batches                      ...      136
Average number of points per batch           ...       61
Average number of grid points per atom       ...      593
UseSFitting                                  ... on

GRIDX 2
-------
General Integration Accuracy     IntAcc      ... 4.020
Radial Grid Type                 RadialGrid  ... OptM3 with GC (2021)
Angular Grid (max. ang.)         AngularGrid ... 2 (Lebedev-110)
Angular grid pruning method      GridPruning ... 4 (adaptive)
Weight generation scheme         WeightScheme... Becke
Basis function cutoff            BFCut       ... 1.0000e-11
Integration weight cutoff        WCut        ... 1.0000e-14
Angular grids for H and He will be reduced by one unit
Partially contracted basis set               ... on
Rotationally invariant grid construction     ... off

Total number of grid points                  ...    18045
Total number of batches                      ...      290
Average number of points per batch           ...       62
Average number of grid points per atom       ...     1289
UseSFitting                                  ... on

GRIDX 3
-------
General Integration Accuracy     IntAcc      ... 4.338
Radial Grid Type                 RadialGrid  ... OptM3 with GC (2021)
Angular Grid (max. ang.)         AngularGrid ... 3 (Lebedev-194)
Angular grid pruning method      GridPruning ... 4 (adaptive)
Weight generation scheme         WeightScheme... Becke
Basis function cutoff            BFCut       ... 1.0000e-11
Integration weight cutoff        WCut        ... 1.0000e-14
Angular grids for H and He will be reduced by one unit
Partially contracted basis set               ... on
Rotationally invariant grid construction     ... off

Total number of grid points                  ...    39640
Total number of batches                      ...      627
Average number of points per batch           ...       63
Average number of grid points per atom       ...     2831
UseSFitting                                  ... on

Time for X-Grid setup             =    0.561 sec

--------------
SCF ITERATIONS
--------------
ITER       Energy         Delta-E        Max-DP      RMS-DP      [F,P]     Damp
               ***  Starting incremental Fock matrix formation  ***
  0   -344.1352822994   0.000000000000 0.05603288  0.00147645  0.1621479 0.7000
  1   -344.2284208612  -0.093138561803 0.04167398  0.00098397  0.0613897 0.7000
                               ***Turning on DIIS***
  2   -344.2659678149  -0.037546953724 0.08593795  0.00166043  0.0206600 0.0000
  3   -344.3328729212  -0.066905106279 0.03077358  0.00085495  0.0548012 0.0000
  4   -344.3475914239  -0.014718502720 0.00877309  0.00033833  0.0096457 0.0000
  5   -344.3490633518  -0.001471927891 0.00690926  0.00021164  0.0072787 0.0000
  6   -344.3497306199  -0.000667268050 0.00445645  0.00010934  0.0042521 0.0000
  7   -344.3499523535  -0.000221733667 0.00189930  0.00005581  0.0019457 0.0000
  8   -344.3500232706  -0.000070917040 0.00151302  0.00003531  0.0013726 0.0000
  9   -344.3500523782  -0.000029107584 0.00179079  0.00004594  0.0005955 0.0000
               *** Restarting incremental Fock matrix formation ***
                                   *** Resetting DIIS ***
 10   -344.3500991836  -0.000046805497 0.00060370  0.00001365  0.0003133 0.0000
 11   -344.3501010879  -0.000001904256 0.00024194  0.00000625  0.0003311 0.0000
 12   -344.3501022165  -0.000001128553 0.00062380  0.00001122  0.0002395 0.0000
 13   -344.3501037973  -0.000001580807 0.00065076  0.00001177  0.0001731 0.0000
 14   -344.3501048925  -0.000001095194 0.00062746  0.00001136  0.0001022 0.0000
 15   -344.3501053751  -0.000000482600 0.00013130  0.00000233  0.0000350 0.0000
 16   -344.3501054066  -0.000000031557 0.00006888  0.00000127  0.0000154 0.0000
 17   -344.3501054081  -0.000000001534 0.00001544  0.00000035  0.0000106 0.0000
 18   -344.3501054130  -0.000000004888 0.00001301  0.00000024  0.0000048 0.0000
 19   -344.3501054153  -0.000000002267 0.00000504  0.00000010  0.0000029 0.0000
 20   -344.3501054144   0.000000000904 0.00000246  0.00000006  0.0000025 0.0000
 21   -344.3501054113   0.000000003132 0.00000223  0.00000007  0.0000013 0.0000
                            ***DIIS convergence achieved***

               *****************************************************
               *                     SUCCESS                       *
               *           SCF CONVERGED AFTER  22 CYCLES          *
               *****************************************************

Old exchange energy                            =    -11.188287569 Eh
New exchange energy                            =    -11.188266703 Eh
Exchange energy change after final integration =      0.000020866 Eh
Total energy after final integration           =   -344.350084546 Eh
Final COS-X integration done in                =     5.223 sec

----------------
TOTAL SCF ENERGY
----------------

Total Energy       :         -344.35008455 Eh           -9370.24217 eV

Components:
Nuclear Repulsion  :          300.53327707 Eh            8177.92623 eV
Electronic Energy  :         -644.88336162 Eh          -17548.16840 eV
One Electron Energy:        -1064.18244090 Eh          -28957.87641 eV
Two Electron Energy:          419.29907929 Eh           11409.70801 eV
Max COSX asymmetry :            0.00000118 Eh               0.00003 eV

Virial components:
Potential Energy   :         -686.00330804 Eh          -18667.09903 eV
Kinetic Energy     :          341.65322349 Eh            9296.85685 eV
Virial Ratio       :            2.00789356


DFT components:
N(Alpha)           :       26.999992190104 electrons
N(Beta)            :       25.999991069511 electrons
N(Total)           :       52.999983259615 electrons
E(X)               :      -33.488432812820 Eh       
E(C)               :       -1.771573574748 Eh       
E(XC)              :      -35.260006387568 Eh       
DFET-embed. en.    :        0.000000000000 Eh       

---------------
SCF CONVERGENCE
---------------

  Last Energy change         ...   -1.6044e-09  Tolerance :   1.0000e-08
  Last MAX-Density change    ...    0.0000e+00  Tolerance :   1.0000e-07
  Last RMS-Density change    ...    0.0000e+00  Tolerance :   5.0000e-09
  Last DIIS Error            ...    7.9716e-07  Tolerance :   5.0000e-07

             **** THE GBW FILE WAS UPDATED (12_1_orca.gbw) ****
             **** DENSITY 12_1_orca.scfp WAS UPDATED ****
             **** ENERGY FILE WAS UPDATED (12_1_orca.en.tmp) ****
----------------------
UHF SPIN CONTAMINATION
----------------------

Warning: in a DFT calculation there is little theoretical justification to 
         calculate <S**2> as in Hartree-Fock theory. We will do it anyways
         but you should keep in mind that the values have only limited relevance

Expectation value of <S**2>     :     0.754079
Ideal value S*(S+1) for S=0.5   :     0.750000
Deviation                       :     0.004079

             **** THE GBW FILE WAS UPDATED (12_1_orca.gbw) ****
             **** DENSITY 12_1_orca.scfp WAS UPDATED ****
----------------
ORBITAL ENERGIES
----------------
                 SPIN UP ORBITALS
  NO   OCC          E(Eh)            E(eV) 
   0   1.0000     -19.241529      -523.5886 
   1   1.0000     -19.196216      -522.3556 
   2   1.0000     -10.302075      -280.3337 
   3   1.0000     -10.298117      -280.2260 
   4   1.0000     -10.252422      -278.9826 
   5   1.0000     -10.250381      -278.9271 
   6   1.0000     -10.249681      -278.9080 
   7   1.0000      -1.129491       -30.7350 
   8   1.0000      -0.954977       -25.9862 
   9   1.0000      -0.838007       -22.8033 
  10   1.0000      -0.750096       -20.4111 
  11   1.0000      -0.692153       -18.8344 
  12   1.0000      -0.607214       -16.5231 
  13   1.0000      -0.589766       -16.0484 
  14   1.0000      -0.565794       -15.3960 
  15   1.0000      -0.482777       -13.1370 
  16   1.0000      -0.471081       -12.8188 
  17   1.0000      -0.446266       -12.1435 
  18   1.0000      -0.428316       -11.6551 
  19   1.0000      -0.418248       -11.3811 
  20   1.0000      -0.409722       -11.1491 
  21   1.0000      -0.376909       -10.2562 
  22   1.0000      -0.368194       -10.0191 
  23   1.0000      -0.327508        -8.9119 
  24   1.0000      -0.289038        -7.8651 
  25   1.0000      -0.279647        -7.6096 
  26   1.0000      -0.243902        -6.6369 
  27   0.0000      -0.018966        -0.5161 
  28   0.0000       0.064898         1.7660 
  29   0.0000       0.094856         2.5812 
  30   0.0000       0.101977         2.7749 
  31   0.0000       0.111611         3.0371 
  32   0.0000       0.129449         3.5225 
  33   0.0000       0.137232         3.7343 
  34   0.0000       0.145733         3.9656 
  35   0.0000       0.147976         4.0266 
  36   0.0000       0.177308         4.8248 
  37   0.0000       0.186750         5.0817 
  38   0.0000       0.211231         5.7479 
  39   0.0000       0.295628         8.0445 
  40   0.0000       0.317187         8.6311 
  41   0.0000       0.374758        10.1977 
  42   0.0000       0.401148        10.9158 
  43   0.0000       0.457437        12.4475 
  44   0.0000       0.470782        12.8106 
  45   0.0000       0.479066        13.0361 
  46   0.0000       0.504135        13.7182 
  47   0.0000       0.520097        14.1526 
  48   0.0000       0.548627        14.9289 
  49   0.0000       0.555694        15.1212 
  50   0.0000       0.564280        15.3548 
  51   0.0000       0.593394        16.1471 
  52   0.0000       0.612693        16.6722 
  53   0.0000       0.630805        17.1651 
  54   0.0000       0.651568        17.7301 
  55   0.0000       0.658059        17.9067 
  56   0.0000       0.666341        18.1321 
  57   0.0000       0.677057        18.4237 
  58   0.0000       0.681944        18.5566 
  59   0.0000       0.694868        18.9083 
  60   0.0000       0.707179        19.2433 
  61   0.0000       0.734829        19.9957 
  62   0.0000       0.759485        20.6666 
  63   0.0000       0.779489        21.2110 
  64   0.0000       0.796964        21.6865 
  65   0.0000       0.896743        24.4016 
  66   0.0000       0.937951        25.5229 
  67   0.0000       0.979812        26.6620 
  68   0.0000       0.988767        26.9057 
  69   0.0000       1.009001        27.4563 
  70   0.0000       1.053919        28.6786 
  71   0.0000       1.063042        28.9268 
  72   0.0000       1.118894        30.4467 
  73   0.0000       1.130798        30.7706 
  74   0.0000       1.204084        32.7648 
  75   0.0000       1.219763        33.1914 
  76   0.0000       1.306779        35.5593 
  77   0.0000       1.347570        36.6692 
  78   0.0000       1.452133        39.5146 
  79   0.0000       1.490083        40.5472 
  80   0.0000       1.504304        40.9342 
  81   0.0000       1.526127        41.5280 
  82   0.0000       1.534706        41.7615 
  83   0.0000       1.564605        42.5751 
  84   0.0000       1.593930        43.3730 
  85   0.0000       1.626734        44.2657 
  86   0.0000       1.660032        45.1718 
  87   0.0000       1.684756        45.8445 
  88   0.0000       1.711011        46.5590 
  89   0.0000       1.750857        47.6432 
  90   0.0000       1.763393        47.9844 
  91   0.0000       1.786871        48.6232 
  92   0.0000       1.816768        49.4368 
  93   0.0000       1.844963        50.2040 
  94   0.0000       1.865627        50.7663 
  95   0.0000       1.883933        51.2644 
  96   0.0000       1.940287        52.7979 
  97   0.0000       1.962661        53.4067 
  98   0.0000       2.007184        54.6183 
  99   0.0000       2.022821        55.0438 
 100   0.0000       2.053491        55.8783 
 101   0.0000       2.072464        56.3946 
 102   0.0000       2.113575        57.5133 
 103   0.0000       2.169166        59.0260 
 104   0.0000       2.184834        59.4524 
 105   0.0000       2.218837        60.3776 
 106   0.0000       2.239688        60.9450 
 107   0.0000       2.264340        61.6158 
 108   0.0000       2.296499        62.4909 
 109   0.0000       2.369377        64.4740 
 110   0.0000       2.431464        66.1635 
 111   0.0000       2.489495        67.7426 
 112   0.0000       2.543164        69.2030 
 113   0.0000       2.564772        69.7910 
 114   0.0000       2.626658        71.4750 
 115   0.0000       2.683900        73.0326 
 116   0.0000       2.727385        74.2159 
 117   0.0000       2.749402        74.8150 
 118   0.0000       2.766187        75.2718 
 119   0.0000       2.822031        76.7914 
 120   0.0000       2.838277        77.2334 
 121   0.0000       2.872877        78.1750 
 122   0.0000       2.904401        79.0328 
 123   0.0000       2.962909        80.6248 
 124   0.0000       3.016155        82.0737 
 125   0.0000       3.032665        82.5230 
 126   0.0000       3.078739        83.7767 
 127   0.0000       3.126489        85.0761 
 128   0.0000       3.181996        86.5865 
 129   0.0000       3.350026        91.1589 
 130   0.0000       3.429584        93.3237 
 131   0.0000       3.468252        94.3759 
 132   0.0000       3.759308       102.2960 

                 SPIN DOWN ORBITALS
  NO   OCC          E(Eh)            E(eV) 
   0   1.0000     -19.235665      -523.4290 
   1   1.0000     -19.171293      -521.6774 
   2   1.0000     -10.301846      -280.3275 
   3   1.0000     -10.298345      -280.2322 
   4   1.0000     -10.252419      -278.9825 
   5   1.0000     -10.250670      -278.9349 
   6   1.0000     -10.248989      -278.8892 
   7   1.0000      -1.121992       -30.5310 
   8   1.0000      -0.891806       -24.2673 
   9   1.0000      -0.834335       -22.7034 
  10   1.0000      -0.750001       -20.4086 
  11   1.0000      -0.688154       -18.7256 
  12   1.0000      -0.606267       -16.4974 
  13   1.0000      -0.588668       -16.0185 
  14   1.0000      -0.560642       -15.2559 
  15   1.0000      -0.474173       -12.9029 
  16   1.0000      -0.469280       -12.7698 
  17   1.0000      -0.440272       -11.9804 
  18   1.0000      -0.423723       -11.5301 
  19   1.0000      -0.415755       -11.3133 
  20   1.0000      -0.390977       -10.6390 
  21   1.0000      -0.374610       -10.1936 
  22   1.0000      -0.339199        -9.2301 
  23   1.0000      -0.304045        -8.2735 
  24   1.0000      -0.260412        -7.0862 
  25   1.0000      -0.255195        -6.9442 
  26   0.0000      -0.053791        -1.4637 
  27   0.0000      -0.013299        -0.3619 
  28   0.0000       0.067759         1.8438 
  29   0.0000       0.095972         2.6115 
  30   0.0000       0.103166         2.8073 
  31   0.0000       0.112572         3.0632 
  32   0.0000       0.131182         3.5697 
  33   0.0000       0.137994         3.7550 
  34   0.0000       0.146460         3.9854 
  35   0.0000       0.149271         4.0619 
  36   0.0000       0.182273         4.9599 
  37   0.0000       0.187712         5.1079 
  38   0.0000       0.212592         5.7849 
  39   0.0000       0.296292         8.0625 
  40   0.0000       0.317431         8.6377 
  41   0.0000       0.375019        10.2048 
  42   0.0000       0.401479        10.9248 
  43   0.0000       0.458383        12.4732 
  44   0.0000       0.471871        12.8403 
  45   0.0000       0.479746        13.0545 
  46   0.0000       0.505311        13.7502 
  47   0.0000       0.520694        14.1688 
  48   0.0000       0.550628        14.9834 
  49   0.0000       0.558372        15.1941 
  50   0.0000       0.565572        15.3900 
  51   0.0000       0.593558        16.1515 
  52   0.0000       0.613361        16.6904 
  53   0.0000       0.634009        17.2523 
  54   0.0000       0.652618        17.7586 
  55   0.0000       0.664337        18.0775 
  56   0.0000       0.667963        18.1762 
  57   0.0000       0.677685        18.4408 
  58   0.0000       0.682129        18.5617 
  59   0.0000       0.696054        18.9406 
  60   0.0000       0.707728        19.2582 
  61   0.0000       0.735277        20.0079 
  62   0.0000       0.760335        20.6898 
  63   0.0000       0.780124        21.2283 
  64   0.0000       0.797431        21.6992 
  65   0.0000       0.903181        24.5768 
  66   0.0000       0.946380        25.7523 
  67   0.0000       0.984608        26.7925 
  68   0.0000       1.008679        27.4475 
  69   0.0000       1.023446        27.8494 
  70   0.0000       1.066526        29.0216 
  71   0.0000       1.095079        29.7986 
  72   0.0000       1.131055        30.7776 
  73   0.0000       1.148838        31.2615 
  74   0.0000       1.210419        32.9372 
  75   0.0000       1.223734        33.2995 
  76   0.0000       1.313909        35.7533 
  77   0.0000       1.348462        36.6935 
  78   0.0000       1.451683        39.5023 
  79   0.0000       1.491960        40.5983 
  80   0.0000       1.518789        41.3284 
  81   0.0000       1.531013        41.6610 
  82   0.0000       1.535512        41.7834 
  83   0.0000       1.567974        42.6668 
  84   0.0000       1.597257        43.4636 
  85   0.0000       1.628167        44.3047 
  86   0.0000       1.661930        45.2234 
  87   0.0000       1.687268        45.9129 
  88   0.0000       1.711863        46.5822 
  89   0.0000       1.751959        47.6732 
  90   0.0000       1.764645        48.0184 
  91   0.0000       1.788650        48.6716 
  92   0.0000       1.819764        49.5183 
  93   0.0000       1.845842        50.2279 
  94   0.0000       1.866690        50.7952 
  95   0.0000       1.886371        51.3308 
  96   0.0000       1.940916        52.8150 
  97   0.0000       1.964213        53.4490 
  98   0.0000       2.007812        54.6354 
  99   0.0000       2.023777        55.0698 
 100   0.0000       2.054795        55.9138 
 101   0.0000       2.073436        56.4211 
 102   0.0000       2.115305        57.5604 
 103   0.0000       2.169441        59.0335 
 104   0.0000       2.185803        59.4787 
 105   0.0000       2.222051        60.4651 
 106   0.0000       2.253065        61.3090 
 107   0.0000       2.265809        61.6558 
 108   0.0000       2.298111        62.5348 
 109   0.0000       2.370018        64.4915 
 110   0.0000       2.432155        66.1823 
 111   0.0000       2.490228        67.7625 
 112   0.0000       2.544124        69.2291 
 113   0.0000       2.566297        69.8325 
 114   0.0000       2.630108        71.5689 
 115   0.0000       2.727160        74.2098 
 116   0.0000       2.748504        74.7906 
 117   0.0000       2.762722        75.1775 
 118   0.0000       2.781407        75.6859 
 119   0.0000       2.842936        77.3602 
 120   0.0000       2.860219        77.8305 
 121   0.0000       2.875148        78.2368 
 122   0.0000       2.917109        79.3786 
 123   0.0000       2.992396        81.4272 
 124   0.0000       3.027513        82.3828 
 125   0.0000       3.077514        83.7434 
 126   0.0000       3.079515        83.7979 
 127   0.0000       3.136484        85.3481 
 128   0.0000       3.185898        86.6927 
 129   0.0000       3.357682        91.3672 
 130   0.0000       3.433155        93.4209 
 131   0.0000       3.470888        94.4477 
 132   0.0000       3.781269       102.8936 

                    ********************************
                    * MULLIKEN POPULATION ANALYSIS *
                    ********************************

--------------------------------------------
MULLIKEN ATOMIC CHARGES AND SPIN POPULATIONS
--------------------------------------------
   0 O :   -0.259893    0.879175
   1 O :   -0.290813    0.119322
   2 C :    0.036347   -0.010870
   3 C :    0.067588    0.009803
   4 C :    0.021142   -0.030751
   5 C :   -0.069999    0.051386
   6 C :    0.070031   -0.001776
   7 H :    0.156600   -0.022188
   8 H :    0.057759    0.002872
   9 H :    0.044417    0.003020
  10 H :    0.037683    0.001639
  11 H :   -0.014268   -0.002291
  12 H :    0.068653    0.000264
  13 H :    0.074752    0.000396
Sum of atomic charges         :    0.0000000
Sum of atomic spin populations:    1.0000000

-----------------------------------------------------
MULLIKEN REDUCED ORBITAL CHARGES AND SPIN POPULATIONS
-----------------------------------------------------
CHARGE
  0 O s       :     3.863178  s :     3.863178
      pz      :     1.706463  p :     4.389458
      px      :     1.237089
      py      :     1.445906
      dz2     :     0.000689  d :     0.007257
      dxz     :     0.000553
      dyz     :     0.002176
      dx2y2   :     0.002895
      dxy     :     0.000944
  1 O s       :     3.876565  s :     3.876565
      pz      :     1.347667  p :     4.392993
      px      :     1.591292
      py      :     1.454034
      dz2     :     0.005870  d :     0.021255
      dxz     :     0.003011
      dyz     :     0.005399
      dx2y2   :     0.003188
      dxy     :     0.003786
  2 C s       :     3.190039  s :     3.190039
      pz      :     0.763782  p :     2.702304
      px      :     0.989027
      py      :     0.949494
      dz2     :     0.021274  d :     0.071311
      dxz     :     0.015972
      dyz     :     0.018030
      dx2y2   :     0.007155
      dxy     :     0.008879
  3 C s       :     3.171938  s :     3.171938
      pz      :     0.956126  p :     2.688708
      px      :     0.920095
      py      :     0.812487
      dz2     :     0.008535  d :     0.071766
      dxz     :     0.011746
      dyz     :     0.013413
      dx2y2   :     0.018566
      dxy     :     0.019506
  4 C s       :     3.162969  s :     3.162969
      pz      :     0.976848  p :     2.783669
      px      :     0.847630
      py      :     0.959191
      dz2     :     0.005366  d :     0.032219
      dxz     :     0.007817
      dyz     :     0.004524
      dx2y2   :     0.007288
      dxy     :     0.007223
  5 C s       :     3.212602  s :     3.212602
      pz      :     0.972987  p :     2.825086
      px      :     0.936141
      py      :     0.915958
      dz2     :     0.006990  d :     0.032312
      dxz     :     0.005640
      dyz     :     0.004499
      dx2y2   :     0.006487
      dxy     :     0.008696
  6 C s       :     2.964174  s :     2.964174
      pz      :     0.977017  p :     2.931620
      px      :     0.935416
      py      :     1.019186
      dz2     :     0.007603  d :     0.034175
      dxz     :     0.006925
      dyz     :     0.005409
      dx2y2   :     0.007239
      dxy     :     0.006999
  7 H s       :     0.776274  s :     0.776274
      pz      :     0.021595  p :     0.067126
      px      :     0.014111
      py      :     0.031419
  8 H s       :     0.919640  s :     0.919640
      pz      :     0.002493  p :     0.022601
      px      :     0.014988
      py      :     0.005120
  9 H s       :     0.933220  s :     0.933220
      pz      :     0.007163  p :     0.022363
      px      :     0.003244
      py      :     0.011956
 10 H s       :     0.938086  s :     0.938086
      pz      :     0.007620  p :     0.024231
      px      :     0.011801
      py      :     0.004810
 11 H s       :     0.985211  s :     0.985211
      pz      :     0.006307  p :     0.029057
      px      :     0.011208
      py      :     0.011542
 12 H s       :     0.908111  s :     0.908111
      pz      :     0.012896  p :     0.023235
      px      :     0.004648
      py      :     0.005691
 13 H s       :     0.901988  s :     0.901988
      pz      :     0.004411  p :     0.023260
      px      :     0.005684
      py      :     0.013165

SPIN
  0 O s       :     0.011687  s :     0.011687
      pz      :     0.140273  p :     0.867182
      px      :     0.709936
      py      :     0.016973
      dz2     :     0.000048  d :     0.000306
      dxz     :     0.000146
      dyz     :     0.000023
      dx2y2   :    -0.000190
      dxy     :     0.000279
  1 O s       :     0.013924  s :     0.013924
      pz      :     0.023162  p :     0.104669
      px      :     0.069867
      py      :     0.011640
      dz2     :    -0.000159  d :     0.000729
      dxz     :     0.000470
      dyz     :     0.000018
      dx2y2   :     0.000226
      dxy     :     0.000174
  2 C s       :    -0.001884  s :    -0.001884
      pz      :    -0.005901  p :    -0.009889
      px      :    -0.002186
      py      :    -0.001802
      dz2     :     0.000120  d :     0.000902
      dxz     :     0.000652
      dyz     :    -0.000016
      dx2y2   :     0.000031
      dxy     :     0.000115
  3 C s       :     0.001039  s :     0.001039
      pz      :     0.003752  p :     0.007892
      px      :     0.001594
      py      :     0.002546
      dz2     :     0.000033  d :     0.000872
      dxz     :    -0.000034
      dyz     :    -0.000038
      dx2y2   :     0.001089
      dxy     :    -0.000179
  4 C s       :    -0.004669  s :    -0.004669
      pz      :    -0.014987  p :    -0.026527
      px      :     0.001300
      py      :    -0.012841
      dz2     :     0.000121  d :     0.000446
      dxz     :     0.000081
      dyz     :     0.000047
      dx2y2   :     0.000122
      dxy     :     0.000075
  5 C s       :     0.006971  s :     0.006971
      pz      :     0.021954  p :     0.044651
      px      :     0.006308
      py      :     0.016390
      dz2     :    -0.000089  d :    -0.000236
      dxz     :    -0.000023
      dyz     :    -0.000071
      dx2y2   :    -0.000051
      dxy     :    -0.000003
  6 C s       :    -0.000963  s :    -0.000963
      pz      :    -0.000128  p :    -0.000940
      px      :    -0.001380
      py      :     0.000569
      dz2     :     0.000011  d :     0.000127
      dxz     :     0.000043
      dyz     :     0.000013
      dx2y2   :    -0.000002
      dxy     :     0.000061
  7 H s       :    -0.027538  s :    -0.027538
      pz      :     0.000651  p :     0.005350
      px      :     0.004618
      py      :     0.000081
  8 H s       :     0.002952  s :     0.002952
      pz      :    -0.000039  p :    -0.000081
      px      :    -0.000032
      py      :    -0.000010
  9 H s       :     0.003045  s :     0.003045
      pz      :    -0.000020  p :    -0.000025
      px      :    -0.000013
      py      :     0.000007
 10 H s       :     0.001776  s :     0.001776
      pz      :    -0.000046  p :    -0.000137
      px      :    -0.000014
      py      :    -0.000077
 11 H s       :    -0.002689  s :    -0.002689
      pz      :     0.000197  p :     0.000398
      px      :     0.000078
      py      :     0.000123
 12 H s       :     0.000238  s :     0.000238
      pz      :    -0.000005  p :     0.000027
      px      :     0.000026
      py      :     0.000006
 13 H s       :     0.000407  s :     0.000407
      pz      :    -0.000002  p :    -0.000011
      px      :    -0.000006
      py      :    -0.000003


                     *******************************
                     * LOEWDIN POPULATION ANALYSIS *
                     *******************************

-------------------------------------------
LOEWDIN ATOMIC CHARGES AND SPIN POPULATIONS
-------------------------------------------
   0 O :   -0.171717    0.835867
   1 O :   -0.093874    0.135690
   2 C :    0.066618   -0.005673
   3 C :    0.044630    0.008414
   4 C :   -0.046167   -0.021081
   5 C :    0.023276    0.039126
   6 C :   -0.044150    0.000342
   7 H :    0.041651    0.002377
   8 H :    0.028221    0.001498
   9 H :    0.024926    0.001827
  10 H :    0.031358    0.000347
  11 H :    0.000885    0.000622
  12 H :    0.045228    0.000399
  13 H :    0.049115    0.000245

----------------------------------------------------
LOEWDIN REDUCED ORBITAL CHARGES AND SPIN POPULATIONS
----------------------------------------------------
CHARGE
  0 O s       :     3.688261  s :     3.688261
      pz      :     1.701937  p :     4.470362
      px      :     1.243465
      py      :     1.524960
      dz2     :     0.001012  d :     0.013093
      dxz     :     0.000991
      dyz     :     0.004072
      dx2y2   :     0.005660
      dxy     :     0.001358
  1 O s       :     3.562021  s :     3.562021
      pz      :     1.404717  p :     4.496348
      px      :     1.579598
      py      :     1.512033
      dz2     :     0.009446  d :     0.035505
      dxz     :     0.004735
      dyz     :     0.009938
      dx2y2   :     0.004952
      dxy     :     0.006435
  2 C s       :     2.858239  s :     2.858239
      pz      :     0.857327  p :     2.917683
      px      :     1.054432
      py      :     1.005925
      dz2     :     0.043257  d :     0.157459
      dxz     :     0.037817
      dyz     :     0.040430
      dx2y2   :     0.014880
      dxy     :     0.021075
  3 C s       :     2.858930  s :     2.858930
      pz      :     1.017023  p :     2.936886
      px      :     0.992652
      py      :     0.927212
      dz2     :     0.018545  d :     0.159554
      dxz     :     0.026961
      dyz     :     0.029541
      dx2y2   :     0.043501
      dxy     :     0.041006
  4 C s       :     2.889596  s :     2.889596
      pz      :     1.024180  p :     3.073478
      px      :     1.022451
      py      :     1.026847
      dz2     :     0.011882  d :     0.083093
      dxz     :     0.019795
      dyz     :     0.012800
      dx2y2   :     0.020602
      dxy     :     0.018013
  5 C s       :     2.873732  s :     2.873732
      pz      :     0.994149  p :     3.022395
      px      :     1.003794
      py      :     1.024453
      dz2     :     0.014483  d :     0.080597
      dxz     :     0.013569
      dyz     :     0.013417
      dx2y2   :     0.018319
      dxy     :     0.020809
  6 C s       :     2.846982  s :     2.846982
      pz      :     1.039500  p :     3.109850
      px      :     1.012597
      py      :     1.057753
      dz2     :     0.019628  d :     0.087318
      dxz     :     0.018019
      dyz     :     0.013503
      dx2y2   :     0.018948
      dxy     :     0.017220
  7 H s       :     0.776833  s :     0.776833
      pz      :     0.057144  p :     0.181517
      px      :     0.036269
      py      :     0.088104
  8 H s       :     0.899502  s :     0.899502
      pz      :     0.010876  p :     0.072277
      px      :     0.044063
      py      :     0.017338
  9 H s       :     0.905249  s :     0.905249
      pz      :     0.022192  p :     0.069825
      px      :     0.012920
      py      :     0.034712
 10 H s       :     0.896562  s :     0.896562
      pz      :     0.022386  p :     0.072081
      px      :     0.035014
      py      :     0.014680
 11 H s       :     0.906606  s :     0.906606
      pz      :     0.022532  p :     0.092509
      px      :     0.035930
      py      :     0.034047
 12 H s       :     0.887669  s :     0.887669
      pz      :     0.037407  p :     0.067103
      px      :     0.013617
      py      :     0.016078
 13 H s       :     0.882616  s :     0.882616
      pz      :     0.012860  p :     0.068269
      px      :     0.017626
      py      :     0.037783

SPIN
  0 O s       :     0.010792  s :     0.010792
      pz      :     0.133872  p :     0.824953
      px      :     0.680336
      py      :     0.010746
      dz2     :    -0.000029  d :     0.000121
      dxz     :     0.000206
      dyz     :    -0.000181
      dx2y2   :     0.000040
      dxy     :     0.000085
  1 O s       :     0.019694  s :     0.019694
      pz      :     0.024814  p :     0.114986
      px      :     0.080162
      py      :     0.010010
      dz2     :    -0.000134  d :     0.001009
      dxz     :     0.000569
      dyz     :     0.000026
      dx2y2   :     0.000314
      dxy     :     0.000235
  2 C s       :    -0.000968  s :    -0.000968
      pz      :    -0.003623  p :    -0.006995
      px      :    -0.001071
      py      :    -0.002301
      dz2     :     0.000519  d :     0.002289
      dxz     :     0.001531
      dyz     :    -0.000075
      dx2y2   :     0.000104
      dxy     :     0.000211
  3 C s       :     0.000307  s :     0.000307
      pz      :     0.003502  p :     0.006612
      px      :     0.000973
      py      :     0.002137
      dz2     :    -0.000025  d :     0.001495
      dxz     :    -0.000073
      dyz     :    -0.000002
      dx2y2   :     0.001890
      dxy     :    -0.000296
  4 C s       :    -0.000392  s :    -0.000392
      pz      :    -0.011710  p :    -0.021808
      px      :     0.000626
      py      :    -0.010724
      dz2     :     0.000252  d :     0.001118
      dxz     :     0.000168
      dyz     :     0.000079
      dx2y2   :     0.000436
      dxy     :     0.000184
  5 C s       :     0.001511  s :     0.001511
      pz      :     0.019643  p :     0.038131
      px      :     0.005791
      py      :     0.012696
      dz2     :    -0.000223  d :    -0.000515
      dxz     :    -0.000037
      dyz     :    -0.000098
      dx2y2   :    -0.000126
      dxy     :    -0.000031
  6 C s       :     0.000025  s :     0.000025
      pz      :     0.000023  p :     0.000005
      px      :    -0.000484
      py      :     0.000466
      dz2     :     0.000045  d :     0.000313
      dxz     :     0.000115
      dyz     :     0.000032
      dx2y2   :     0.000000
      dxy     :     0.000120
  7 H s       :    -0.018835  s :    -0.018835
      pz      :     0.003777  p :     0.021212
      px      :     0.014827
      py      :     0.002608
  8 H s       :     0.001778  s :     0.001778
      pz      :    -0.000128  p :    -0.000280
      px      :    -0.000060
      py      :    -0.000092
  9 H s       :     0.001778  s :     0.001778
      pz      :     0.000102  p :     0.000049
      px      :     0.000018
      py      :    -0.000071
 10 H s       :     0.000908  s :     0.000908
      pz      :    -0.000269  p :    -0.000561
      px      :    -0.000025
      py      :    -0.000268
 11 H s       :    -0.000980  s :    -0.000980
      pz      :     0.000766  p :     0.001603
      px      :     0.000316
      py      :     0.000520
 12 H s       :     0.000322  s :     0.000322
      pz      :    -0.000004  p :     0.000077
      px      :     0.000060
      py      :     0.000021
 13 H s       :     0.000270  s :     0.000270
      pz      :     0.000002  p :    -0.000025
      px      :    -0.000021
      py      :    -0.000007


                      *****************************
                      * MAYER POPULATION ANALYSIS *
                      *****************************

  NA   - Mulliken gross atomic population
  ZA   - Total nuclear charge
  QA   - Mulliken gross atomic charge
  VA   - Mayer's total valence
  BVA  - Mayer's bonded valence
  FA   - Mayer's free valence

  ATOM       NA         ZA         QA         VA         BVA        FA
  0 O      8.2599     8.0000    -0.2599     2.0094     1.2820     0.7274
  1 O      8.2908     8.0000    -0.2908     2.0696     2.0528     0.0168
  2 C      5.9637     6.0000     0.0363     3.9666     3.9665     0.0001
  3 C      5.9324     6.0000     0.0676     3.9155     3.9154     0.0001
  4 C      5.9789     6.0000     0.0211     3.7806     3.7799     0.0007
  5 C      6.0700     6.0000    -0.0700     3.9715     3.9698     0.0018
  6 C      5.9300     6.0000     0.0700     3.8214     3.8214     0.0000
  7 H      0.8434     1.0000     0.1566     1.0161     1.0149     0.0012
  8 H      0.9422     1.0000     0.0578     1.0170     1.0170     0.0000
  9 H      0.9556     1.0000     0.0444     0.9887     0.9887     0.0000
 10 H      0.9623     1.0000     0.0377     0.9891     0.9891     0.0000
 11 H      1.0143     1.0000    -0.0143     1.0020     1.0020     0.0000
 12 H      0.9313     1.0000     0.0687     0.9776     0.9776     0.0000
 13 H      0.9252     1.0000     0.0748     0.9808     0.9808     0.0000

  Mayer bond orders larger than 0.100000
B(  0-O ,  1-O ) :   0.1842 B(  0-O ,  7-H ) :   0.9965 B(  1-O ,  2-C ) :   0.9052 
B(  1-O ,  3-C ) :   0.8949 B(  2-C ,  3-C ) :   1.0159 B(  2-C ,  6-C ) :   1.0083 
B(  2-C ,  8-H ) :   0.9606 B(  3-C ,  4-C ) :   0.9875 B(  3-C ,  9-H ) :   0.9723 
B(  4-C ,  5-C ) :   1.8126 B(  4-C , 10-H ) :   0.9951 B(  5-C ,  6-C ) :   1.0082 
B(  5-C , 11-H ) :   0.9981 B(  6-C , 12-H ) :   0.9300 B(  6-C , 13-H ) :   0.9284 



------------------
HIRSHFELD ANALYSIS
------------------

Total integrated alpha density =     26.999992190
Total integrated beta density  =     25.999991069

  ATOM     CHARGE      SPIN    
   0 O   -0.264469    0.807995
   1 O   -0.121601    0.136426
   2 C    0.056716   -0.000912
   3 C    0.041961    0.009141
   4 C   -0.045079   -0.012576
   5 C   -0.017919    0.031309
   6 C   -0.037513    0.002463
   7 H    0.126496    0.020226
   8 H    0.051625    0.001375
   9 H    0.049425    0.001470
  10 H    0.041503   -0.000673
  11 H    0.039542    0.002677
  12 H    0.036107    0.000722
  13 H    0.043223    0.000360

  TOTAL   0.000017    1.000001

-------
TIMINGS
-------

Total SCF time: 0 days 0 hours 1 min 3 sec 

Total time                  ....      63.362 sec
Sum of individual times     ....      63.205 sec  ( 99.8%)

Fock matrix formation       ....      61.299 sec  ( 96.7%)
  Split-RI-J                ....       3.688 sec  (  6.0% of F)
  Chain of spheres X        ....      41.918 sec  ( 68.4% of F)
  XC integration            ....      15.697 sec  ( 25.6% of F)
    Basis function eval.    ....       4.637 sec  ( 29.5% of XC)
    Density eval.           ....       4.319 sec  ( 27.5% of XC)
    XC-Functional eval.     ....       1.558 sec  (  9.9% of XC)
    XC-Potential eval.      ....       4.826 sec  ( 30.7% of XC)
Diagonalization             ....       0.102 sec  (  0.2%)
Density matrix formation    ....       0.008 sec  (  0.0%)
Population analysis         ....       0.381 sec  (  0.6%)
Initial guess               ....       0.218 sec  (  0.3%)
Orbital Transformation      ....       0.000 sec  (  0.0%)
Orbital Orthonormalization  ....       0.000 sec  (  0.0%)
DIIS solution               ....       0.026 sec  (  0.0%)
Grid generation             ....       1.171 sec  (  1.8%)

Maximum memory used throughout the entire SCF-calculation: 63.5 MB


-------------------------------------------------------------------------------
                          DFT DISPERSION CORRECTION                            
                                                                               
                              DFTD3 V3.1  Rev 1                                
                          USING Becke-Johnson damping                          
-------------------------------------------------------------------------------
The PBE0 functional is recognized
Active option DFTDOPT                   ...         4   

molecular C6(AA) [au] = 1744.353808 


            DFT-D V3
 parameters
 s6 scaling factor         :     1.0000 
 a1 scaling factor         :     0.4145 
 s8 scaling factor         :     1.2177 
 a2 scaling factor         :     4.8593 
 ad hoc parameters k1-k3   :    16.0000     1.3333    -4.0000 

 Edisp/kcal,au: -6.166971988254  -0.009827694378 
 E6   /kcal   :  -3.923137605 
 E8   /kcal   :  -2.243834383 
 % E8         :  36.384702047 

-------------------------   ----------------
Dispersion correction           -0.009827694
-------------------------   ----------------


-------------------------   --------------------
FINAL SINGLE POINT ENERGY      -344.359912240855
-------------------------   --------------------

------------------------------------------------------------------------------
                         ORCA SCF GRADIENT CALCULATION
------------------------------------------------------------------------------

 ... reading COSX grid (gridx3)
Gradient of the Kohn-Sham DFT energy:
Kohn-Sham wavefunction type      ... UKS
Hartree-Fock exchange scaling    ...    0.250
Number of operators              ...    2
Number of atoms                  ...   14
Basis set dimensions             ...  133
Integral neglect threshold       ... 2.5e-11
Integral primitive cutoff        ... 2.5e-12
SHARK Integral package           ... ON

Nuc. rep. gradient       (SHARK) ... done (  0.0 sec)
HCore & Overlap gradient (SHARK) ... done (  0.1 sec)
RI-J gradient            (SHARK) ... done (  0.6 sec)
COSX-gradient                    ... done (  6.8 sec)
Exchange-correlation gradient    ... done
Dispersion correction            ... done

------------------
CARTESIAN GRADIENT
------------------

   1   O   :    0.024306591   -0.004946527   -0.011159082
   2   O   :    0.005384545   -0.007807044    0.003854752
   3   C   :   -0.012627051    0.007198100   -0.016840223
   4   C   :   -0.001409769    0.007907610    0.002615412
   5   C   :   -0.013581611    0.041917065    0.037416095
   6   C   :    0.094253496   -0.116910270   -0.040177039
   7   C   :   -0.026489423    0.005257735    0.003444992
   8   H   :    0.002481633    0.005006257   -0.000749104
   9   H   :    0.000832724   -0.000432859    0.001770247
  10   H   :   -0.002716754   -0.002651235    0.002167097
  11   H   :   -0.000257640   -0.002490824   -0.003577636
  12   H   :   -0.075417961    0.066344423    0.021250603
  13   H   :    0.005848677   -0.000058266   -0.000258627
  14   H   :   -0.000599623    0.001695424    0.000205298

Difference to translation invariance:
           :    0.0000078328    0.0000295891   -0.0000372144

Difference to rotation invariance:
           :   -0.0005489425    0.0002297926   -0.0003861251

Norm of the cartesian gradient     ...    0.2007784133
RMS gradient                       ...    0.0309807818
MAX gradient                       ...    0.1169102699

-------
TIMINGS
-------

Total SCF gradient time            ...       11.632 sec

One electron gradient       ....       0.098 sec  (  0.8%)
RI-J Coulomb gradient       ....       0.612 sec  (  5.3%)
COSX gradient               ....       6.825 sec  ( 58.7%)
XC gradient                 ....       3.783 sec  ( 32.5%)

Maximum memory used throughout the entire SCFGRAD-calculation: 50.3 MB

                            ***************************************
                            *     ORCA property calculations      *
                            ***************************************

                                    ---------------------
                                    Active property flags
                                    ---------------------
   (+) Dipole Moment


------------------------------------------------------------------------------
                       ORCA ELECTRIC PROPERTIES CALCULATION
------------------------------------------------------------------------------

Dipole Moment Calculation                       ... on
Quadrupole Moment Calculation                   ... off
Polarizability Calculation                      ... off
GBWName                                         ... 12_1_orca.gbw
Electron density                                ... 12_1_orca.scfp
The origin for moment calculation is the CENTER OF MASS  = (-0.313364, -0.122682  0.431094)

-------------
DIPOLE MOMENT
-------------
                                X             Y             Z
Electronic contribution:     -0.74656       0.11574       1.87181
Nuclear contribution   :      1.45083       0.75229      -2.49835
                        -----------------------------------------
Total Dipole Moment    :      0.70427       0.86802      -0.62654
                        -----------------------------------------
Magnitude (a.u.)       :      1.28141
Magnitude (Debye)      :      3.25710



--------------------
Rotational spectrum 
--------------------
 
Rotational constants in cm-1:     0.190535     0.068631     0.058971 
Rotational constants in MHz :  5712.095170  2057.519741  1767.894929 

 Dipole components along the rotational axes: 
x,y,z [a.u.] :    -0.923364     0.315358    -0.830646 
x,y,z [Debye]:    -2.347005     0.801575    -2.111334 

 

Timings for individual modules:

Sum of individual times         ...       75.210 sec (=   1.253 min)
GTO integral calculation        ...        0.162 sec (=   0.003 min)   0.2 %
SCF iterations                  ...       63.386 sec (=   1.056 min)  84.3 %
SCF Gradient evaluation         ...       11.662 sec (=   0.194 min)  15.5 %
                             ****ORCA TERMINATED NORMALLY****
TOTAL RUN TIME: 0 days 0 hours 1 minutes 15 seconds 365 msec
