
                                 *****************
                                 * O   R   C   A *
                                 *****************

                                            #,                                       
                                            ###                                      
                                            ####                                     
                                            #####                                    
                                            ######                                   
                                           ########,                                 
                                     ,,################,,,,,                         
                               ,,#################################,,                 
                          ,,##########################################,,             
                       ,#########################################, ''#####,          
                    ,#############################################,,   '####,        
                  ,##################################################,,,,####,       
                ,###########''''           ''''###############################       
              ,#####''   ,,,,##########,,,,          '''####'''          '####       
            ,##' ,,,,###########################,,,                        '##       
           ' ,,###''''                  '''############,,,                           
         ,,##''                                '''############,,,,        ,,,,,,###''
      ,#''                                            '''#######################'''  
     '                                                          ''''####''''         
             ,#######,   #######,   ,#######,      ##                                
            ,#'     '#,  ##    ##  ,#'     '#,    #''#        ######   ,####,        
            ##       ##  ##   ,#'  ##            #'  '#       #        #'  '#        
            ##       ##  #######   ##           ,######,      #####,   #    #        
            '#,     ,#'  ##    ##  '#,     ,#' ,#      #,         ##   #,  ,#        
             '#######'   ##     ##  '#######'  #'      '#     #####' # '####'        



                  #######################################################
                  #                        -***-                        #
                  #          Department of theory and spectroscopy      #
                  #    Directorship and core code : Frank Neese         #
                  #        Max Planck Institute fuer Kohlenforschung    #
                  #                Kaiser Wilhelm Platz 1               #
                  #                 D-45470 Muelheim/Ruhr               #
                  #                      Germany                        #
                  #                                                     #
                  #                  All rights reserved                #
                  #                        -***-                        #
                  #######################################################


                         Program Version 5.0.4 -  RELEASE  -


 With contributions from (in alphabetic order):
   Daniel Aravena         : Magnetic Suceptibility
   Michael Atanasov       : Ab Initio Ligand Field Theory (pilot matlab implementation)
   Alexander A. Auer      : GIAO ZORA, VPT2 properties, NMR spectrum
   Ute Becker             : Parallelization
   Giovanni Bistoni       : ED, misc. LED, open-shell LED, HFLD
   Martin Brehm           : Molecular dynamics
   Dmytro Bykov           : SCF Hessian
   Vijay G. Chilkuri      : MRCI spin determinant printing, contributions to CSF-ICE
   Dipayan Datta          : RHF DLPNO-CCSD density
   Achintya Kumar Dutta   : EOM-CC, STEOM-CC
   Dmitry Ganyushin       : Spin-Orbit,Spin-Spin,Magnetic field MRCI
   Miquel Garcia          : C-PCM and meta-GGA Hessian, CC/C-PCM, Gaussian charge scheme
   Yang Guo               : DLPNO-NEVPT2, F12-NEVPT2, CIM, IAO-localization
   Andreas Hansen         : Spin unrestricted coupled pair/coupled cluster methods
   Benjamin Helmich-Paris : MC-RPA, TRAH-SCF, COSX integrals
   Lee Huntington         : MR-EOM, pCC
   Robert Izsak           : Overlap fitted RIJCOSX, COSX-SCS-MP3, EOM
   Marcus Kettner         : VPT2
   Christian Kollmar      : KDIIS, OOCD, Brueckner-CCSD(T), CCSD density, CASPT2, CASPT2-K
   Simone Kossmann        : Meta GGA functionals, TD-DFT gradient, OOMP2, MP2 Hessian
   Martin Krupicka        : Initial AUTO-CI
   Lucas Lang             : DCDCAS
   Marvin Lechner         : AUTO-CI (C++ implementation), FIC-MRCC
   Dagmar Lenk            : GEPOL surface, SMD
   Dimitrios Liakos       : Extrapolation schemes; Compound Job, initial MDCI parallelization
   Dimitrios Manganas     : Further ROCIS development; embedding schemes
   Dimitrios Pantazis     : SARC Basis sets
   Anastasios Papadopoulos: AUTO-CI, single reference methods and gradients
   Taras Petrenko         : DFT Hessian,TD-DFT gradient, ASA, ECA, R-Raman, ABS, FL, XAS/XES, NRVS
   Peter Pinski           : DLPNO-MP2, DLPNO-MP2 Gradient
   Christoph Reimann      : Effective Core Potentials
   Marius Retegan         : Local ZFS, SOC
   Christoph Riplinger    : Optimizer, TS searches, QM/MM, DLPNO-CCSD(T), (RO)-DLPNO pert. Triples
   Tobias Risthaus        : Range-separated hybrids, TD-DFT gradient, RPA, STAB
   Michael Roemelt        : Original ROCIS implementation
   Masaaki Saitow         : Open-shell DLPNO-CCSD energy and density
   Barbara Sandhoefer     : DKH picture change effects
   Avijit Sen             : IP-ROCIS
   Kantharuban Sivalingam : CASSCF convergence, NEVPT2, FIC-MRCI
   Bernardo de Souza      : ESD, SOC TD-DFT
   Georgi Stoychev        : AutoAux, RI-MP2 NMR, DLPNO-MP2 response
   Willem Van den Heuvel  : Paramagnetic NMR
   Boris Wezisla          : Elementary symmetry handling
   Frank Wennmohs         : Technical directorship


 We gratefully acknowledge several colleagues who have allowed us to
 interface, adapt or use parts of their codes:
   Stefan Grimme, W. Hujo, H. Kruse, P. Pracht,  : VdW corrections, initial TS optimization,
                  C. Bannwarth, S. Ehlert          DFT functionals, gCP, sTDA/sTD-DF
   Ed Valeev, F. Pavosevic, A. Kumar             : LibInt (2-el integral package), F12 methods
   Garnet Chan, S. Sharma, J. Yang, R. Olivares  : DMRG
   Ulf Ekstrom                                   : XCFun DFT Library
   Mihaly Kallay                                 : mrcc  (arbitrary order and MRCC methods)
   Jiri Pittner, Ondrej Demel                    : Mk-CCSD
   Frank Weinhold                                : gennbo (NPA and NBO analysis)
   Christopher J. Cramer and Donald G. Truhlar   : smd solvation model
   Lars Goerigk                                  : TD-DFT with DH, B97 family of functionals
   V. Asgeirsson, H. Jonsson                     : NEB implementation
   FAccTs GmbH                                   : IRC, NEB, NEB-TS, DLPNO-Multilevel, CI-OPT
                                                   MM, QMMM, 2- and 3-layer-ONIOM, Crystal-QMMM,
                                                   LR-CPCM, SF, NACMEs, symmetry and pop. for TD-DFT,
                                                   nearIR, NL-DFT gradient (VV10), updates on ESD,
                                                   ML-optimized integration grids
   S Lehtola, MJT Oliveira, MAL Marques          : LibXC Library
   Liviu Ungur et al                             : ANISO software


 Your calculation uses the libint2 library for the computation of 2-el integrals
 For citations please refer to: http://libint.valeyev.net

 Your ORCA version has been built with support for libXC version: 5.1.0
 For citations please refer to: https://tddft.org/programs/libxc/

 This ORCA versions uses:
   CBLAS   interface :  Fast vector & matrix operations
   LAPACKE interface :  Fast linear algebra routines
   SCALAPACK package :  Parallel linear algebra routines
   Shared memory     :  Shared parallel matrices
   BLAS/LAPACK       :  OpenBLAS 0.3.15  USE64BITINT DYNAMIC_ARCH NO_AFFINITY SkylakeX SINGLE_THREADED
        Core in use  :  SkylakeX
   Copyright (c) 2011-2014, The OpenBLAS Project


Your calculation utilizes the atom-pairwise dispersion correction
with the Becke-Johnson damping scheme (D3BJ)
Cite in your paper:
S.Grimme, S.Ehrlich, L.Goerigk, J Comput Chem, (2011), 32, 1456–1465 
S.Grimme, J.Antony, S.Ehrlich and H.Krieg, J.Chem.Phys., 132, (2010), 154104 
   

================================================================================

----- Orbital basis set information -----
Your calculation utilizes the basis: def2-SVP
   F. Weigend and R. Ahlrichs, Phys. Chem. Chem. Phys. 7, 3297 (2005).

----- AuxJ basis set information -----
Your calculation utilizes the auxiliary basis: def2/J
   F. Weigend, Phys. Chem. Chem. Phys. 8, 1057 (2006).

================================================================================
                                        WARNINGS
                       Please study these warnings very carefully!
================================================================================


WARNING: your system is open-shell and RHF/RKS was chosen
  ===> : WILL SWITCH to UHF/UKS


INFO   : the flag for use of the SHARK integral package has been found!

================================================================================
                                       INPUT FILE
================================================================================
NAME = 12_2_orca.inp
|  1> ! EnGrad PBE0 RIJCOSX D3BJ def2-SVP def2/J 
|  2> %output 
|  3> xyzfile=True 
|  4> end 
|  5> %scf 
|  6> maxiter 250 
|  7> end
|  8> %output
|  9> Print[P_Hirshfeld] = 1
| 10> end
| 11> % maxcore
| 12> 4000
| 13> *xyz 0 2
| 14> O   -2.38882094  -0.37305181   1.72671419 
| 15> O   -0.56211281  -0.25698764   0.90694099 
| 16> C   -0.73530964   0.22930408  -0.41196183 
| 17> C    0.16910810   0.91075795   0.53709580 
| 18> C    1.53705673   0.40563792   0.26881465 
| 19> C    1.44371862  -0.60226483  -0.61209794 
| 20> C    0.08810870  -0.64754338  -1.30803254 
| 21> H   -2.18190059   0.49454305   2.11302891 
| 22> H   -1.74848520   0.58208409  -0.63937942 
| 23> H   -0.09919024   1.81455360   1.09541186 
| 24> H    2.43024110   0.68367297   0.83665714 
| 25> H    2.19271716  -1.33779039  -0.79672849 
| 26> H    0.22604669  -0.25644260  -2.33137759 
| 27> H   -0.37101801  -1.64628385  -1.38486866 
| 28> *
| 29> 
| 30>                          ****END OF INPUT****
================================================================================

                     *******************************
                     * Energy+Gradient Calculation *
                     *******************************

---------------------------------
CARTESIAN COORDINATES (ANGSTROEM)
---------------------------------
  O     -2.388821   -0.373052    1.726714
  O     -0.562113   -0.256988    0.906941
  C     -0.735310    0.229304   -0.411962
  C      0.169108    0.910758    0.537096
  C      1.537057    0.405638    0.268815
  C      1.443719   -0.602265   -0.612098
  C      0.088109   -0.647543   -1.308033
  H     -2.181901    0.494543    2.113029
  H     -1.748485    0.582084   -0.639379
  H     -0.099190    1.814554    1.095412
  H      2.430241    0.683673    0.836657
  H      2.192717   -1.337790   -0.796728
  H      0.226047   -0.256443   -2.331378
  H     -0.371018   -1.646284   -1.384869

----------------------------
CARTESIAN COORDINATES (A.U.)
----------------------------
  NO LB      ZA    FRAG     MASS         X           Y           Z
   0 O     8.0000    0    15.999   -4.514217   -0.704966    3.263017
   1 O     8.0000    0    15.999   -1.062239   -0.485636    1.713870
   2 C     6.0000    0    12.011   -1.389534    0.433322   -0.778495
   3 C     6.0000    0    12.011    0.319568    1.721083    1.014964
   4 C     6.0000    0    12.011    2.904616    0.766545    0.507986
   5 C     6.0000    0    12.011    2.728233   -1.138116   -1.156697
   6 C     6.0000    0    12.011    0.166501   -1.223680   -2.471823
   7 H     1.0000    0     1.008   -4.123195    0.934551    3.993046
   8 H     1.0000    0     1.008   -3.304158    1.099980   -1.208252
   9 H     1.0000    0     1.008   -0.187442    3.429009    2.070028
  10 H     1.0000    0     1.008    4.592490    1.291955    1.581053
  11 H     1.0000    0     1.008    4.143635   -2.528057   -1.505599
  12 H     1.0000    0     1.008    0.427166   -0.484606   -4.405665
  13 H     1.0000    0     1.008   -0.701122   -3.111026   -2.617022

--------------------------------
INTERNAL COORDINATES (ANGSTROEM)
--------------------------------
 O      0   0   0     0.000000000000     0.00000000     0.00000000
 O      1   0   0     2.005582604433     0.00000000     0.00000000
 C      2   1   0     1.416326737539   106.80526616     0.00000000
 C      2   1   3     1.426569047313   128.33059492    68.06789890
 C      4   2   1     1.482701748320   103.94238494   168.15731487
 C      5   4   2     1.341859511073   108.08932219    53.00765012
 C      3   2   1     1.499940648185   106.76597563   226.84235576
 H      1   2   3     0.971995851448    85.23343973   263.15527433
 H      3   2   1     1.096675526798   114.61566060     9.43921061
 H      4   2   1     1.095694938867   114.68248978    25.64572066
 H      5   4   2     1.094315722856   124.93083661   243.59539870
 H      6   5   4     1.065872929729   125.67339970   198.17332565
 H      7   3   2     1.104183771191   114.53100049   192.74310563
 H      7   3   2     1.101900018871   110.04629219    70.90883988

---------------------------
INTERNAL COORDINATES (A.U.)
---------------------------
 O      0   0   0     0.000000000000     0.00000000     0.00000000
 O      1   0   0     3.790001861335     0.00000000     0.00000000
 C      2   1   0     2.676469650098   106.80526616     0.00000000
 C      2   1   3     2.695824810551   128.33059492    68.06789890
 C      4   2   1     2.801900242611   103.94238494   168.15731487
 C      5   4   2     2.535746986125   108.08932219    53.00765012
 C      3   2   1     2.834477042205   106.76597563   226.84235576
 H      1   2   3     1.836805962543    85.23343973   263.15527433
 H      3   2   1     2.072416403423   114.61566060     9.43921061
 H      4   2   1     2.070563360783   114.68248978    25.64572066
 H      5   4   2     2.067957020242   124.93083661   243.59539870
 H      6   5   4     2.014207930748   125.67339970   198.17332565
 H      7   3   2     2.086604929071   114.53100049   192.74310563
 H      7   3   2     2.082289262629   110.04629219    70.90883988

---------------------
BASIS SET INFORMATION
---------------------
There are 3 groups of distinct atoms

 Group   1 Type O   : 7s4p1d contracted to 3s2p1d pattern {511/31/1}
 Group   2 Type C   : 7s4p1d contracted to 3s2p1d pattern {511/31/1}
 Group   3 Type H   : 4s1p contracted to 2s1p pattern {31/1}

Atom   0O    basis set group =>   1
Atom   1O    basis set group =>   1
Atom   2C    basis set group =>   2
Atom   3C    basis set group =>   2
Atom   4C    basis set group =>   2
Atom   5C    basis set group =>   2
Atom   6C    basis set group =>   2
Atom   7H    basis set group =>   3
Atom   8H    basis set group =>   3
Atom   9H    basis set group =>   3
Atom  10H    basis set group =>   3
Atom  11H    basis set group =>   3
Atom  12H    basis set group =>   3
Atom  13H    basis set group =>   3
---------------------------------
AUXILIARY/J BASIS SET INFORMATION
---------------------------------
There are 3 groups of distinct atoms

 Group   1 Type O   : 12s5p4d2f1g contracted to 6s4p3d1f1g pattern {711111/2111/211/2/1}
 Group   2 Type C   : 12s5p4d2f1g contracted to 6s4p3d1f1g pattern {711111/2111/211/2/1}
 Group   3 Type H   : 5s2p1d contracted to 3s1p1d pattern {311/2/1}

Atom   0O    basis set group =>   1
Atom   1O    basis set group =>   1
Atom   2C    basis set group =>   2
Atom   3C    basis set group =>   2
Atom   4C    basis set group =>   2
Atom   5C    basis set group =>   2
Atom   6C    basis set group =>   2
Atom   7H    basis set group =>   3
Atom   8H    basis set group =>   3
Atom   9H    basis set group =>   3
Atom  10H    basis set group =>   3
Atom  11H    basis set group =>   3
Atom  12H    basis set group =>   3
Atom  13H    basis set group =>   3
------------------------------------------------------------------------------
                           ORCA GTO INTEGRAL CALCULATION
                           -- RI-GTO INTEGRALS CHOSEN --
------------------------------------------------------------------------------
------------------------------------------------------------------------------
                   ___                                                        
                  /   \      - P O W E R E D   B Y -                         
                 /     \                                                     
                 |  |  |   _    _      __       _____    __    __             
                 |  |  |  | |  | |    /  \     |  _  \  |  |  /  |          
                  \  \/   | |  | |   /    \    | | | |  |  | /  /          
                 / \  \   | |__| |  /  /\  \   | |_| |  |  |/  /          
                |  |  |   |  __  | /  /__\  \  |    /   |      \           
                |  |  |   | |  | | |   __   |  |    \   |  |\   \          
                \     /   | |  | | |  |  |  |  | |\  \  |  | \   \       
                 \___/    |_|  |_| |__|  |__|  |_| \__\ |__|  \__/        
                                                                              
                      - O R C A' S   B I G   F R I E N D -                    
                                      &                                       
                       - I N T E G R A L  F E E D E R -                       
                                                                              
 v1 FN, 2020, v2 2021                                                         
------------------------------------------------------------------------------


Reading SHARK input file 12_2_orca.SHARKINP.tmp ... ok
----------------------
SHARK INTEGRAL PACKAGE
----------------------

Number of atoms                             ...     14
Number of basis functions                   ...    133
Number of shells                            ...     63
Maximum angular momentum                    ...      2
Integral batch strategy                     ... SHARK/LIBINT Hybrid
RI-J (if used) integral strategy            ... SPLIT-RIJ (Revised 2003 algorithm where possible)
Printlevel                                  ...      1
Contraction scheme used                     ... SEGMENTED contraction
Coulomb Range Separation                    ... NOT USED
Exchange Range Separation                   ... NOT USED
Finite Nucleus Model                        ... NOT USED
Auxiliary Coulomb fitting basis             ... AVAILABLE
   # of basis functions in Aux-J            ...    420
   # of shells in Aux-J                     ...    140
   Maximum angular momentum in Aux-J        ...      4
Auxiliary J/K fitting basis                 ... NOT available
Auxiliary Correlation fitting basis         ... NOT available
Auxiliary 'external' fitting basis          ... NOT available
Integral threshold                          ...     2.500000e-11
Primitive cut-off                           ...     2.500000e-12
Primitive pair pre-selection threshold      ...     2.500000e-12

Calculating pre-screening integrals         ... done (  0.0 sec) Dimension = 63
Organizing shell pair data                  ... done (  0.0 sec)
Shell pair information
Total number of shell pairs                 ...      2016
Shell pairs after pre-screening             ...      1947
Total number of primitive shell pairs       ...      7252
Primitive shell pairs kept                  ...      5351
          la=0 lb=0:    606 shell pairs
          la=1 lb=0:    710 shell pairs
          la=1 lb=1:    225 shell pairs
          la=2 lb=0:    236 shell pairs
          la=2 lb=1:    143 shell pairs
          la=2 lb=2:     27 shell pairs

Calculating one electron integrals          ... done (  0.0 sec)
Calculating RI/J V-Matrix + Cholesky decomp.... done (  0.0 sec)
Calculating Nuclear repulsion               ... done (  0.0 sec) ENN=    301.541232186283 Eh

SHARK setup successfully completed in   0.1 seconds

Maximum memory used throughout the entire GTOINT-calculation: 16.9 MB
-------------------------------------------------------------------------------
                                 ORCA SCF
-------------------------------------------------------------------------------

------------
SCF SETTINGS
------------
Hamiltonian:
 Density Functional     Method          .... DFT(GTOs)
 Exchange Functional    Exchange        .... PBE
   PBE kappa parameter   XKappa         ....  0.804000
   PBE mue parameter    XMuePBE         ....  0.219520
 Correlation Functional Correlation     .... PBE
   PBE beta parameter  CBetaPBE         ....  0.066725
 LDA part of GGA corr.  LDAOpt          .... PW91-LDA
 Gradients option       PostSCFGGA      .... off
 Hybrid DFT is turned on
   Fraction HF Exchange ScalHFX         ....  0.250000
   Scaling of DF-GGA-X  ScalDFX         ....  0.750000
   Scaling of DF-GGA-C  ScalDFC         ....  1.000000
   Scaling of DF-LDA-C  ScalLDAC        ....  1.000000
   Perturbative correction              ....  0.000000
   Density functional embedding theory  .... OFF
   NL short-range parameter             ....  6.900000
 RI-approximation to the Coulomb term is turned on
   Number of AuxJ basis functions       .... 420
   RIJ-COSX (HFX calculated with COS-X)).... on


General Settings:
 Integral files         IntName         .... 12_2_orca
 Hartree-Fock type      HFTyp           .... UHF
 Total Charge           Charge          ....    0
 Multiplicity           Mult            ....    2
 Number of Electrons    NEL             ....   53
 Basis Dimension        Dim             ....  133
 Nuclear Repulsion      ENuc            ....    301.5412321863 Eh

Convergence Acceleration:
 DIIS                   CNVDIIS         .... on
   Start iteration      DIISMaxIt       ....    12
   Startup error        DIISStart       ....  0.200000
   # of expansion vecs  DIISMaxEq       ....     5
   Bias factor          DIISBfac        ....   1.050
   Max. coefficient     DIISMaxC        ....  10.000
 Trust-Rad. Augm. Hess. CNVTRAH         .... auto
   Auto Start mean grad. ratio tolernc. ....  1.125000
   Auto Start start iteration           ....    20
   Auto Start num. interpolation iter.  ....    10
   Max. Number of Micro iterations      ....    16
   Max. Number of Macro iterations      .... Maxiter - #DIIS iter
   Number of Davidson start vectors     ....     2
   Converg. threshold I  (grad. norm)   ....   1.000e-05
   Converg. threshold II (energy diff.) ....   1.000e-08
   Grad. Scal. Fac. for Micro threshold ....   0.100
   Minimum threshold for Micro iter.    ....   0.010
   NR start threshold (gradient norm)   ....   0.001
   Initial trust radius                 ....   0.400
   Minimum AH scaling param. (alpha)    ....   1.000
   Maximum AH scaling param. (alpha)    .... 1000.000
   Orbital update algorithm             .... Taylor
   White noise on init. David. guess    .... on
   Maximum white noise                  ....   0.010
   Quad. conv. algorithm                .... NR
 SOSCF                  CNVSOSCF        .... off
 Level Shifting         CNVShift        .... on
   Level shift para.    LevelShift      ....    0.2500
   Turn off err/grad.   ShiftErr        ....    0.0010
 Zerner damping         CNVZerner       .... off
 Static damping         CNVDamp         .... on
   Fraction old density DampFac         ....    0.7000
   Max. Damping (<1)    DampMax         ....    0.9800
   Min. Damping (>=0)   DampMin         ....    0.0000
   Turn off err/grad.   DampErr         ....    0.1000
 Fernandez-Rico         CNVRico         .... off

SCF Procedure:
 Maximum # iterations   MaxIter         ....   250
 SCF integral mode      SCFMode         .... Direct
   Integral package                     .... SHARK and LIBINT hybrid scheme
 Reset frequency        DirectResetFreq ....    20
 Integral Threshold     Thresh          ....  2.500e-11 Eh
 Primitive CutOff       TCut            ....  2.500e-12 Eh

Convergence Tolerance:
 Convergence Check Mode ConvCheckMode   .... Total+1el-Energy
 Convergence forced     ConvForced      .... 0
 Energy Change          TolE            ....  1.000e-08 Eh
 1-El. energy change                    ....  1.000e-05 Eh
 DIIS Error             TolErr          ....  5.000e-07


Diagonalization of the overlap matrix:
Smallest eigenvalue                        ... 7.508e-04
Time for diagonalization                   ...    0.003 sec
Threshold for overlap eigenvalues          ... 1.000e-08
Number of eigenvalues below threshold      ... 0
Time for construction of square roots      ...    0.001 sec
Total time needed                          ...    0.004 sec

Time for model grid setup =    0.120 sec

------------------------------
INITIAL GUESS: MODEL POTENTIAL
------------------------------
Loading Hartree-Fock densities                     ... done
Calculating cut-offs                               ... done
Initializing the effective Hamiltonian             ... done
Setting up the integral package (SHARK)            ... done
Starting the Coulomb interaction                   ... done (   0.1 sec)
Reading the grid                                   ... done
Mapping shells                                     ... done
Starting the XC term evaluation                    ... done (   0.1 sec)
  promolecular density results
     # of electrons  =     52.997788450
     EX              =    -43.892347158
     EC              =     -1.758175110
     EX+EC           =    -45.650522268
Transforming the Hamiltonian                       ... done (   0.0 sec)
Diagonalizing the Hamiltonian                      ... done (   0.0 sec)
Back transforming the eigenvectors                 ... done (   0.0 sec)
Now organizing SCF variables                       ... done
                      ------------------
                      INITIAL GUESS DONE (   0.3 sec)
                      ------------------
-------------------
DFT GRID GENERATION
-------------------

General Integration Accuracy     IntAcc      ... 4.388
Radial Grid Type                 RadialGrid  ... OptM3 with GC (2021)
Angular Grid (max. ang.)         AngularGrid ... 4 (Lebedev-302)
Angular grid pruning method      GridPruning ... 4 (adaptive)
Weight generation scheme         WeightScheme... Becke
Basis function cutoff            BFCut       ... 1.0000e-11
Integration weight cutoff        WCut        ... 1.0000e-14
Angular grids for H and He will be reduced by one unit
Partially contracted basis set               ... off
Rotationally invariant grid construction     ... off

Total number of grid points                  ...    64868
Total number of batches                      ...     1020
Average number of points per batch           ...       63
Average number of grid points per atom       ...     4633
Time for grid setup =    0.487 sec

--------------------
COSX GRID GENERATION
--------------------

GRIDX 1
-------
General Integration Accuracy     IntAcc      ... 3.816
Radial Grid Type                 RadialGrid  ... OptM3 with GC (2021)
Angular Grid (max. ang.)         AngularGrid ... 1 (Lebedev-50)
Angular grid pruning method      GridPruning ... 4 (adaptive)
Weight generation scheme         WeightScheme... Becke
Basis function cutoff            BFCut       ... 1.0000e-11
Integration weight cutoff        WCut        ... 1.0000e-14
Angular grids for H and He will be reduced by one unit
Partially contracted basis set               ... on
Rotationally invariant grid construction     ... off

Total number of grid points                  ...     8300
Total number of batches                      ...      136
Average number of points per batch           ...       61
Average number of grid points per atom       ...      593
UseSFitting                                  ... on

GRIDX 2
-------
General Integration Accuracy     IntAcc      ... 4.020
Radial Grid Type                 RadialGrid  ... OptM3 with GC (2021)
Angular Grid (max. ang.)         AngularGrid ... 2 (Lebedev-110)
Angular grid pruning method      GridPruning ... 4 (adaptive)
Weight generation scheme         WeightScheme... Becke
Basis function cutoff            BFCut       ... 1.0000e-11
Integration weight cutoff        WCut        ... 1.0000e-14
Angular grids for H and He will be reduced by one unit
Partially contracted basis set               ... on
Rotationally invariant grid construction     ... off

Total number of grid points                  ...    18039
Total number of batches                      ...      289
Average number of points per batch           ...       62
Average number of grid points per atom       ...     1288
UseSFitting                                  ... on

GRIDX 3
-------
General Integration Accuracy     IntAcc      ... 4.338
Radial Grid Type                 RadialGrid  ... OptM3 with GC (2021)
Angular Grid (max. ang.)         AngularGrid ... 3 (Lebedev-194)
Angular grid pruning method      GridPruning ... 4 (adaptive)
Weight generation scheme         WeightScheme... Becke
Basis function cutoff            BFCut       ... 1.0000e-11
Integration weight cutoff        WCut        ... 1.0000e-14
Angular grids for H and He will be reduced by one unit
Partially contracted basis set               ... on
Rotationally invariant grid construction     ... off

Total number of grid points                  ...    39636
Total number of batches                      ...      626
Average number of points per batch           ...       63
Average number of grid points per atom       ...     2831
UseSFitting                                  ... on

Time for X-Grid setup             =    0.556 sec

--------------
SCF ITERATIONS
--------------
ITER       Energy         Delta-E        Max-DP      RMS-DP      [F,P]     Damp
               ***  Starting incremental Fock matrix formation  ***
  0   -344.1532428383   0.000000000000 0.05260601  0.00144100  0.1580145 0.7000
  1   -344.2441926062  -0.090949767923 0.03930963  0.00097185  0.0612647 0.7000
                               ***Turning on DIIS***
  2   -344.2816257305  -0.037433124254 0.08153208  0.00166524  0.0224127 0.0000
  3   -344.3471746453  -0.065548914854 0.02930179  0.00082285  0.0537515 0.0000
  4   -344.3614499494  -0.014275304025 0.00891760  0.00032453  0.0095407 0.0000
  5   -344.3627380171  -0.001288067756 0.00652394  0.00020310  0.0070937 0.0000
  6   -344.3633244120  -0.000586394858 0.00434025  0.00010166  0.0042210 0.0000
  7   -344.3635157595  -0.000191347518 0.00184159  0.00005149  0.0020039 0.0000
  8   -344.3635766446  -0.000060885112 0.00146405  0.00003323  0.0013284 0.0000
  9   -344.3636022002  -0.000025555597 0.00175478  0.00004275  0.0006063 0.0000
               *** Restarting incremental Fock matrix formation ***
                                   *** Resetting DIIS ***
 10   -344.3636421043  -0.000039904119 0.00059124  0.00001230  0.0003123 0.0000
 11   -344.3636440206  -0.000001916315 0.00027619  0.00000560  0.0002604 0.0000
 12   -344.3636448563  -0.000000835621 0.00064586  0.00001111  0.0002357 0.0000
 13   -344.3636462809  -0.000001424585 0.00062280  0.00001069  0.0001673 0.0000
 14   -344.3636471682  -0.000000887336 0.00059225  0.00000993  0.0000999 0.0000
 15   -344.3636475508  -0.000000382581 0.00012365  0.00000201  0.0000378 0.0000
 16   -344.3636475792  -0.000000028441 0.00007664  0.00000127  0.0000182 0.0000
 17   -344.3636475851  -0.000000005889 0.00002802  0.00000054  0.0000087 0.0000
 18   -344.3636475935  -0.000000008361 0.00002365  0.00000043  0.0000058 0.0000
 19   -344.3636475950  -0.000000001516 0.00001868  0.00000037  0.0000052 0.0000
                 **** Energy Check signals convergence ****

               *****************************************************
               *                     SUCCESS                       *
               *           SCF CONVERGED AFTER  20 CYCLES          *
               *****************************************************

Old exchange energy                            =    -11.191527090 Eh
New exchange energy                            =    -11.191501082 Eh
Exchange energy change after final integration =      0.000026008 Eh
Total energy after final integration           =   -344.363621587 Eh
Final COS-X integration done in                =     5.203 sec

----------------
TOTAL SCF ENERGY
----------------

Total Energy       :         -344.36362159 Eh           -9370.61054 eV

Components:
Nuclear Repulsion  :          301.54123219 Eh            8205.35408 eV
Electronic Energy  :         -645.90485377 Eh          -17575.96462 eV
One Electron Energy:        -1066.23297237 Eh          -29013.67420 eV
Two Electron Energy:          420.32811860 Eh           11437.70959 eV
Max COSX asymmetry :            0.00000120 Eh               0.00003 eV

Virial components:
Potential Energy   :         -686.05413505 Eh          -18668.48210 eV
Kinetic Energy     :          341.69051347 Eh            9297.87157 eV
Virial Ratio       :            2.00782319


DFT components:
N(Alpha)           :       26.999995649521 electrons
N(Beta)            :       25.999994493109 electrons
N(Total)           :       52.999990142631 electrons
E(X)               :      -33.494235147279 Eh       
E(C)               :       -1.773222759868 Eh       
E(XC)              :      -35.267457907147 Eh       
DFET-embed. en.    :        0.000000000000 Eh       

---------------
SCF CONVERGENCE
---------------

  Last Energy change         ...    9.0665e-11  Tolerance :   1.0000e-08
  Last MAX-Density change    ...    0.0000e+00  Tolerance :   1.0000e-07
  Last RMS-Density change    ...    0.0000e+00  Tolerance :   5.0000e-09
  Last DIIS Error            ...    4.4052e-06  Tolerance :   5.0000e-07

             **** THE GBW FILE WAS UPDATED (12_2_orca.gbw) ****
             **** DENSITY 12_2_orca.scfp WAS UPDATED ****
             **** ENERGY FILE WAS UPDATED (12_2_orca.en.tmp) ****
----------------------
UHF SPIN CONTAMINATION
----------------------

Warning: in a DFT calculation there is little theoretical justification to 
         calculate <S**2> as in Hartree-Fock theory. We will do it anyways
         but you should keep in mind that the values have only limited relevance

Expectation value of <S**2>     :     0.753491
Ideal value S*(S+1) for S=0.5   :     0.750000
Deviation                       :     0.003491

             **** THE GBW FILE WAS UPDATED (12_2_orca.gbw) ****
             **** DENSITY 12_2_orca.scfp WAS UPDATED ****
----------------
ORBITAL ENERGIES
----------------
                 SPIN UP ORBITALS
  NO   OCC          E(Eh)            E(eV) 
   0   1.0000     -19.240859      -523.5704 
   1   1.0000     -19.196759      -522.3704 
   2   1.0000     -10.300656      -280.2951 
   3   1.0000     -10.296755      -280.1889 
   4   1.0000     -10.250886      -278.9408 
   5   1.0000     -10.248375      -278.8725 
   6   1.0000     -10.244768      -278.7743 
   7   1.0000      -1.133110       -30.8335 
   8   1.0000      -0.956467       -26.0268 
   9   1.0000      -0.846087       -23.0232 
  10   1.0000      -0.751303       -20.4440 
  11   1.0000      -0.688234       -18.7278 
  12   1.0000      -0.607849       -16.5404 
  13   1.0000      -0.579072       -15.7573 
  14   1.0000      -0.566770       -15.4226 
  15   1.0000      -0.484544       -13.1851 
  16   1.0000      -0.470109       -12.7923 
  17   1.0000      -0.443780       -12.0759 
  18   1.0000      -0.425812       -11.5869 
  19   1.0000      -0.417444       -11.3592 
  20   1.0000      -0.409503       -11.1431 
  21   1.0000      -0.380115       -10.3434 
  22   1.0000      -0.368306       -10.0221 
  23   1.0000      -0.326568        -8.8864 
  24   1.0000      -0.291839        -7.9413 
  25   1.0000      -0.280400        -7.6301 
  26   1.0000      -0.247770        -6.7422 
  27   0.0000      -0.009156        -0.2491 
  28   0.0000       0.063659         1.7322 
  29   0.0000       0.093687         2.5494 
  30   0.0000       0.105713         2.8766 
  31   0.0000       0.109678         2.9845 
  32   0.0000       0.128019         3.4836 
  33   0.0000       0.136012         3.7011 
  34   0.0000       0.144953         3.9444 
  35   0.0000       0.147819         4.0224 
  36   0.0000       0.178413         4.8549 
  37   0.0000       0.191644         5.2149 
  38   0.0000       0.215611         5.8671 
  39   0.0000       0.302325         8.2267 
  40   0.0000       0.316274         8.6063 
  41   0.0000       0.390261        10.6195 
  42   0.0000       0.397105        10.8058 
  43   0.0000       0.455739        12.4013 
  44   0.0000       0.469419        12.7735 
  45   0.0000       0.477112        12.9829 
  46   0.0000       0.501046        13.6341 
  47   0.0000       0.517546        14.0831 
  48   0.0000       0.548890        14.9361 
  49   0.0000       0.555332        15.1113 
  50   0.0000       0.563098        15.3227 
  51   0.0000       0.596526        16.2323 
  52   0.0000       0.618453        16.8290 
  53   0.0000       0.631530        17.1848 
  54   0.0000       0.643591        17.5130 
  55   0.0000       0.657758        17.8985 
  56   0.0000       0.667643        18.1675 
  57   0.0000       0.676383        18.4053 
  58   0.0000       0.680476        18.5167 
  59   0.0000       0.684701        18.6317 
  60   0.0000       0.707133        19.2421 
  61   0.0000       0.727603        19.7991 
  62   0.0000       0.761090        20.7103 
  63   0.0000       0.779240        21.2042 
  64   0.0000       0.834587        22.7103 
  65   0.0000       0.898044        24.4370 
  66   0.0000       0.937929        25.5223 
  67   0.0000       0.977691        26.6043 
  68   0.0000       0.987339        26.8669 
  69   0.0000       1.012094        27.5405 
  70   0.0000       1.051353        28.6088 
  71   0.0000       1.062617        28.9153 
  72   0.0000       1.116507        30.3817 
  73   0.0000       1.128098        30.6971 
  74   0.0000       1.202642        32.7256 
  75   0.0000       1.219361        33.1805 
  76   0.0000       1.308267        35.5998 
  77   0.0000       1.352173        36.7945 
  78   0.0000       1.452917        39.5359 
  79   0.0000       1.487480        40.4764 
  80   0.0000       1.503355        40.9084 
  81   0.0000       1.526048        41.5259 
  82   0.0000       1.534711        41.7616 
  83   0.0000       1.560839        42.4726 
  84   0.0000       1.598447        43.4960 
  85   0.0000       1.631391        44.3924 
  86   0.0000       1.681981        45.7690 
  87   0.0000       1.689249        45.9668 
  88   0.0000       1.711622        46.5756 
  89   0.0000       1.745261        47.4910 
  90   0.0000       1.762540        47.9612 
  91   0.0000       1.789542        48.6959 
  92   0.0000       1.811266        49.2871 
  93   0.0000       1.844159        50.1821 
  94   0.0000       1.866403        50.7874 
  95   0.0000       1.882626        51.2289 
  96   0.0000       1.930213        52.5238 
  97   0.0000       1.961799        53.3833 
  98   0.0000       1.993156        54.2365 
  99   0.0000       2.018196        54.9179 
 100   0.0000       2.047170        55.7063 
 101   0.0000       2.064797        56.1860 
 102   0.0000       2.113651        57.5154 
 103   0.0000       2.155971        58.6670 
 104   0.0000       2.175910        59.2095 
 105   0.0000       2.225426        60.5569 
 106   0.0000       2.248834        61.1939 
 107   0.0000       2.264513        61.6205 
 108   0.0000       2.291417        62.3526 
 109   0.0000       2.379465        64.7485 
 110   0.0000       2.410639        65.5968 
 111   0.0000       2.515832        68.4593 
 112   0.0000       2.530925        68.8700 
 113   0.0000       2.571945        69.9862 
 114   0.0000       2.642326        71.9013 
 115   0.0000       2.681944        72.9794 
 116   0.0000       2.720556        74.0301 
 117   0.0000       2.744345        74.6774 
 118   0.0000       2.773587        75.4731 
 119   0.0000       2.783568        75.7447 
 120   0.0000       2.821359        76.7731 
 121   0.0000       2.861556        77.8669 
 122   0.0000       2.902863        78.9909 
 123   0.0000       2.961744        80.5931 
 124   0.0000       3.017901        82.1213 
 125   0.0000       3.030915        82.4754 
 126   0.0000       3.069972        83.5382 
 127   0.0000       3.121466        84.9394 
 128   0.0000       3.145218        85.5857 
 129   0.0000       3.343779        90.9888 
 130   0.0000       3.406191        92.6872 
 131   0.0000       3.469204        94.4018 
 132   0.0000       3.762627       102.3863 

                 SPIN DOWN ORBITALS
  NO   OCC          E(Eh)            E(eV) 
   0   1.0000     -19.235060      -523.4126 
   1   1.0000     -19.171766      -521.6903 
   2   1.0000     -10.300448      -280.2895 
   3   1.0000     -10.296971      -280.1948 
   4   1.0000     -10.250870      -278.9403 
   5   1.0000     -10.247850      -278.8582 
   6   1.0000     -10.244925      -278.7786 
   7   1.0000      -1.125761       -30.6335 
   8   1.0000      -0.893210       -24.3055 
   9   1.0000      -0.842350       -22.9215 
  10   1.0000      -0.751091       -20.4382 
  11   1.0000      -0.684277       -18.6201 
  12   1.0000      -0.606950       -16.5159 
  13   1.0000      -0.577802       -15.7228 
  14   1.0000      -0.561817       -15.2878 
  15   1.0000      -0.475761       -12.9461 
  16   1.0000      -0.468593       -12.7511 
  17   1.0000      -0.436968       -11.8905 
  18   1.0000      -0.422228       -11.4894 
  19   1.0000      -0.412294       -11.2191 
  20   1.0000      -0.393650       -10.7118 
  21   1.0000      -0.377346       -10.2681 
  22   1.0000      -0.339339        -9.2339 
  23   1.0000      -0.302328        -8.2268 
  24   1.0000      -0.265982        -7.2377 
  25   1.0000      -0.256237        -6.9726 
  26   0.0000      -0.053713        -1.4616 
  27   0.0000      -0.004966        -0.1351 
  28   0.0000       0.066264         1.8031 
  29   0.0000       0.095017         2.5855 
  30   0.0000       0.106654         2.9022 
  31   0.0000       0.110743         3.0135 
  32   0.0000       0.129844         3.5332 
  33   0.0000       0.136443         3.7128 
  34   0.0000       0.146305         3.9812 
  35   0.0000       0.149020         4.0550 
  36   0.0000       0.182354         4.9621 
  37   0.0000       0.193828         5.2743 
  38   0.0000       0.216683         5.8962 
  39   0.0000       0.303048         8.2464 
  40   0.0000       0.316543         8.6136 
  41   0.0000       0.390333        10.6215 
  42   0.0000       0.397588        10.8189 
  43   0.0000       0.456863        12.4319 
  44   0.0000       0.470112        12.7924 
  45   0.0000       0.477786        13.0012 
  46   0.0000       0.502145        13.6641 
  47   0.0000       0.518243        14.1021 
  48   0.0000       0.550588        14.9823 
  49   0.0000       0.558039        15.1850 
  50   0.0000       0.564271        15.3546 
  51   0.0000       0.596975        16.2445 
  52   0.0000       0.619249        16.8506 
  53   0.0000       0.634140        17.2558 
  54   0.0000       0.645024        17.5520 
  55   0.0000       0.662698        18.0329 
  56   0.0000       0.670375        18.2418 
  57   0.0000       0.677000        18.4221 
  58   0.0000       0.680909        18.5285 
  59   0.0000       0.685724        18.6595 
  60   0.0000       0.707693        19.2573 
  61   0.0000       0.728198        19.8153 
  62   0.0000       0.762042        20.7362 
  63   0.0000       0.779848        21.2207 
  64   0.0000       0.835038        22.7225 
  65   0.0000       0.905160        24.6307 
  66   0.0000       0.946048        25.7433 
  67   0.0000       0.981739        26.7145 
  68   0.0000       1.011957        27.5367 
  69   0.0000       1.022080        27.8122 
  70   0.0000       1.064451        28.9652 
  71   0.0000       1.094487        29.7825 
  72   0.0000       1.129399        30.7325 
  73   0.0000       1.145550        31.1720 
  74   0.0000       1.208936        32.8968 
  75   0.0000       1.223487        33.2928 
  76   0.0000       1.315466        35.7957 
  77   0.0000       1.352942        36.8154 
  78   0.0000       1.452461        39.5235 
  79   0.0000       1.489136        40.5214 
  80   0.0000       1.518098        41.3095 
  81   0.0000       1.529854        41.6295 
  82   0.0000       1.536669        41.8149 
  83   0.0000       1.563937        42.5569 
  84   0.0000       1.601832        43.5881 
  85   0.0000       1.632809        44.4310 
  86   0.0000       1.685861        45.8746 
  87   0.0000       1.689858        45.9834 
  88   0.0000       1.712504        46.5996 
  89   0.0000       1.746160        47.5154 
  90   0.0000       1.763408        47.9848 
  91   0.0000       1.792797        48.7845 
  92   0.0000       1.812824        49.3294 
  93   0.0000       1.845069        50.2069 
  94   0.0000       1.867441        50.8156 
  95   0.0000       1.885208        51.2991 
  96   0.0000       1.930870        52.5416 
  97   0.0000       1.963303        53.4242 
  98   0.0000       1.993780        54.2535 
  99   0.0000       2.018978        54.9392 
 100   0.0000       2.048257        55.7359 
 101   0.0000       2.066217        56.2246 
 102   0.0000       2.115452        57.5644 
 103   0.0000       2.156262        58.6749 
 104   0.0000       2.176787        59.2334 
 105   0.0000       2.229149        60.6582 
 106   0.0000       2.261288        61.5328 
 107   0.0000       2.266595        61.6772 
 108   0.0000       2.292971        62.3949 
 109   0.0000       2.379913        64.7607 
 110   0.0000       2.411173        65.6114 
 111   0.0000       2.516675        68.4822 
 112   0.0000       2.531716        68.8915 
 113   0.0000       2.574335        70.0512 
 114   0.0000       2.644468        71.9596 
 115   0.0000       2.719623        74.0047 
 116   0.0000       2.747982        74.7764 
 117   0.0000       2.757482        75.0349 
 118   0.0000       2.783847        75.7523 
 119   0.0000       2.793075        76.0034 
 120   0.0000       2.856777        77.7369 
 121   0.0000       2.867320        78.0237 
 122   0.0000       2.915068        79.3230 
 123   0.0000       2.990665        81.3801 
 124   0.0000       3.029936        82.4488 
 125   0.0000       3.068017        83.4850 
 126   0.0000       3.075028        83.6758 
 127   0.0000       3.136347        85.3444 
 128   0.0000       3.148013        85.6618 
 129   0.0000       3.349310        91.1394 
 130   0.0000       3.411143        92.8219 
 131   0.0000       3.472666        94.4960 
 132   0.0000       3.784656       102.9857 

                    ********************************
                    * MULLIKEN POPULATION ANALYSIS *
                    ********************************

--------------------------------------------
MULLIKEN ATOMIC CHARGES AND SPIN POPULATIONS
--------------------------------------------
   0 O :   -0.256874    0.882836
   1 O :   -0.290044    0.117637
   2 C :    0.027577   -0.010154
   3 C :    0.060425    0.008554
   4 C :    0.029469   -0.017500
   5 C :   -0.121227    0.035685
   6 C :    0.081610   -0.000530
   7 H :    0.156190   -0.022102
   8 H :    0.057518    0.003135
   9 H :    0.043729    0.003036
  10 H :    0.037900    0.001016
  11 H :    0.031433   -0.001788
  12 H :    0.067605   -0.000017
  13 H :    0.074688    0.000191
Sum of atomic charges         :    0.0000000
Sum of atomic spin populations:    1.0000000

-----------------------------------------------------
MULLIKEN REDUCED ORBITAL CHARGES AND SPIN POPULATIONS
-----------------------------------------------------
CHARGE
  0 O s       :     3.862044  s :     3.862044
      pz      :     1.706274  p :     4.387539
      px      :     1.234271
      py      :     1.446993
      dz2     :     0.000696  d :     0.007291
      dxz     :     0.000556
      dyz     :     0.002178
      dx2y2   :     0.002892
      dxy     :     0.000969
  1 O s       :     3.872916  s :     3.872916
      pz      :     1.346975  p :     4.395566
      px      :     1.593293
      py      :     1.455298
      dz2     :     0.005980  d :     0.021562
      dxz     :     0.003081
      dyz     :     0.005469
      dx2y2   :     0.003198
      dxy     :     0.003834
  2 C s       :     3.191644  s :     3.191644
      pz      :     0.765844  p :     2.708038
      px      :     0.991999
      py      :     0.950196
      dz2     :     0.021708  d :     0.072741
      dxz     :     0.016338
      dyz     :     0.018367
      dx2y2   :     0.007271
      dxy     :     0.009058
  3 C s       :     3.177479  s :     3.177479
      pz      :     0.956365  p :     2.689936
      px      :     0.922333
      py      :     0.811237
      dz2     :     0.008583  d :     0.072159
      dxz     :     0.011816
      dyz     :     0.013543
      dx2y2   :     0.018525
      dxy     :     0.019693
  4 C s       :     3.155683  s :     3.155683
      pz      :     0.978895  p :     2.780809
      px      :     0.840508
      py      :     0.961407
      dz2     :     0.006127  d :     0.034039
      dxz     :     0.007945
      dyz     :     0.004808
      dx2y2   :     0.007486
      dxy     :     0.007673
  5 C s       :     3.220646  s :     3.220646
      pz      :     0.977188  p :     2.865081
      px      :     0.956369
      py      :     0.931525
      dz2     :     0.007928  d :     0.035499
      dxz     :     0.006263
      dyz     :     0.005120
      dx2y2   :     0.007335
      dxy     :     0.008853
  6 C s       :     2.954102  s :     2.954102
      pz      :     0.975051  p :     2.929751
      px      :     0.934991
      py      :     1.019708
      dz2     :     0.007641  d :     0.034538
      dxz     :     0.007234
      dyz     :     0.005459
      dx2y2   :     0.007161
      dxy     :     0.007043
  7 H s       :     0.776296  s :     0.776296
      pz      :     0.021717  p :     0.067513
      px      :     0.014255
      py      :     0.031541
  8 H s       :     0.920182  s :     0.920182
      pz      :     0.002458  p :     0.022299
      px      :     0.014804
      py      :     0.005037
  9 H s       :     0.933999  s :     0.933999
      pz      :     0.007118  p :     0.022272
      px      :     0.003228
      py      :     0.011926
 10 H s       :     0.938104  s :     0.938104
      pz      :     0.007673  p :     0.023996
      px      :     0.011529
      py      :     0.004794
 11 H s       :     0.943689  s :     0.943689
      pz      :     0.004991  p :     0.024878
      px      :     0.009793
      py      :     0.010094
 12 H s       :     0.909040  s :     0.909040
      pz      :     0.013000  p :     0.023355
      px      :     0.004589
      py      :     0.005766
 13 H s       :     0.902105  s :     0.902105
      pz      :     0.004370  p :     0.023207
      px      :     0.005745
      py      :     0.013092

SPIN
  0 O s       :     0.011814  s :     0.011814
      pz      :     0.141810  p :     0.870714
      px      :     0.711841
      py      :     0.017063
      dz2     :     0.000049  d :     0.000308
      dxz     :     0.000143
      dyz     :     0.000026
      dx2y2   :    -0.000193
      dxy     :     0.000283
  1 O s       :     0.013868  s :     0.013868
      pz      :     0.022836  p :     0.103056
      px      :     0.068848
      py      :     0.011372
      dz2     :    -0.000159  d :     0.000714
      dxz     :     0.000463
      dyz     :     0.000017
      dx2y2   :     0.000222
      dxy     :     0.000171
  2 C s       :    -0.001838  s :    -0.001838
      pz      :    -0.005671  p :    -0.009243
      px      :    -0.002031
      py      :    -0.001541
      dz2     :     0.000116  d :     0.000927
      dxz     :     0.000672
      dyz     :    -0.000012
      dx2y2   :     0.000030
      dxy     :     0.000121
  3 C s       :     0.000679  s :     0.000679
      pz      :     0.003556  p :     0.006926
      px      :     0.001105
      py      :     0.002265
      dz2     :     0.000036  d :     0.000949
      dxz     :     0.000005
      dyz     :    -0.000034
      dx2y2   :     0.001076
      dxy     :    -0.000134
  4 C s       :    -0.002941  s :    -0.002941
      pz      :    -0.009150  p :    -0.014928
      px      :     0.002309
      py      :    -0.008087
      dz2     :     0.000103  d :     0.000369
      dxz     :     0.000074
      dyz     :     0.000030
      dx2y2   :     0.000098
      dxy     :     0.000066
  5 C s       :     0.005124  s :     0.005124
      pz      :     0.014859  p :     0.030714
      px      :     0.004188
      py      :     0.011666
      dz2     :    -0.000057  d :    -0.000153
      dxz     :    -0.000024
      dyz     :    -0.000051
      dx2y2   :    -0.000038
      dxy     :     0.000017
  6 C s       :    -0.000624  s :    -0.000624
      pz      :     0.000112  p :     0.000015
      px      :    -0.000749
      py      :     0.000652
      dz2     :    -0.000007  d :     0.000079
      dxz     :     0.000034
      dyz     :     0.000005
      dx2y2   :    -0.000001
      dxy     :     0.000048
  7 H s       :    -0.027548  s :    -0.027548
      pz      :     0.000668  p :     0.005446
      px      :     0.004687
      py      :     0.000091
  8 H s       :     0.003213  s :     0.003213
      pz      :    -0.000036  p :    -0.000078
      px      :    -0.000035
      py      :    -0.000007
  9 H s       :     0.003063  s :     0.003063
      pz      :    -0.000021  p :    -0.000027
      px      :    -0.000013
      py      :     0.000007
 10 H s       :     0.001088  s :     0.001088
      pz      :    -0.000016  p :    -0.000072
      px      :    -0.000007
      py      :    -0.000049
 11 H s       :    -0.002012  s :    -0.002012
      pz      :     0.000115  p :     0.000224
      px      :     0.000046
      py      :     0.000064
 12 H s       :    -0.000042  s :    -0.000042
      pz      :    -0.000002  p :     0.000025
      px      :     0.000022
      py      :     0.000006
 13 H s       :     0.000199  s :     0.000199
      pz      :    -0.000001  p :    -0.000008
      px      :    -0.000005
      py      :    -0.000002


                     *******************************
                     * LOEWDIN POPULATION ANALYSIS *
                     *******************************

-------------------------------------------
LOEWDIN ATOMIC CHARGES AND SPIN POPULATIONS
-------------------------------------------
   0 O :   -0.167756    0.839436
   1 O :   -0.091645    0.133883
   2 C :    0.062202   -0.005033
   3 C :    0.045354    0.008139
   4 C :   -0.052194   -0.011233
   5 C :    0.000982    0.027195
   6 C :   -0.045711    0.000709
   7 H :    0.040251    0.002768
   8 H :    0.027789    0.001710
   9 H :    0.024402    0.001836
  10 H :    0.034584    0.000311
  11 H :    0.025676    0.000041
  12 H :    0.045739    0.000144
  13 H :    0.050325    0.000094

----------------------------------------------------
LOEWDIN REDUCED ORBITAL CHARGES AND SPIN POPULATIONS
----------------------------------------------------
CHARGE
  0 O s       :     3.686235  s :     3.686235
      pz      :     1.701394  p :     4.468368
      px      :     1.240497
      py      :     1.526476
      dz2     :     0.001024  d :     0.013153
      dxz     :     0.000991
      dyz     :     0.004070
      dx2y2   :     0.005650
      dxy     :     0.001418
  1 O s       :     3.555906  s :     3.555906
      pz      :     1.405377  p :     4.499555
      px      :     1.580854
      py      :     1.513324
      dz2     :     0.009667  d :     0.036184
      dxz     :     0.004856
      dyz     :     0.010146
      dx2y2   :     0.004985
      dxy     :     0.006529
  2 C s       :     2.857417  s :     2.857417
      pz      :     0.860851  p :     2.919858
      px      :     1.052952
      py      :     1.006056
      dz2     :     0.044187  d :     0.160522
      dxz     :     0.038681
      dyz     :     0.041153
      dx2y2   :     0.015052
      dxy     :     0.021449
  3 C s       :     2.860044  s :     2.860044
      pz      :     1.017936  p :     2.934789
      px      :     0.990988
      py      :     0.925864
      dz2     :     0.018620  d :     0.159814
      dxz     :     0.026908
      dyz     :     0.029808
      dx2y2   :     0.043320
      dxy     :     0.041159
  4 C s       :     2.880181  s :     2.880181
      pz      :     1.030861  p :     3.083472
      px      :     1.017341
      py      :     1.035270
      dz2     :     0.013373  d :     0.088541
      dxz     :     0.020787
      dyz     :     0.013903
      dx2y2   :     0.020652
      dxy     :     0.019827
  5 C s       :     2.879376  s :     2.879376
      pz      :     1.002059  p :     3.031920
      px      :     1.002650
      py      :     1.027211
      dz2     :     0.016252  d :     0.087723
      dxz     :     0.015635
      dyz     :     0.014605
      dx2y2   :     0.019357
      dxy     :     0.021874
  6 C s       :     2.843683  s :     2.843683
      pz      :     1.038617  p :     3.113133
      px      :     1.017297
      py      :     1.057218
      dz2     :     0.019868  d :     0.088895
      dxz     :     0.019059
      dyz     :     0.013523
      dx2y2   :     0.018848
      dxy     :     0.017597
  7 H s       :     0.776798  s :     0.776798
      pz      :     0.057592  p :     0.182951
      px      :     0.036757
      py      :     0.088602
  8 H s       :     0.900971  s :     0.900971
      pz      :     0.010719  p :     0.071240
      px      :     0.043473
      py      :     0.017049
  9 H s       :     0.906091  s :     0.906091
      pz      :     0.022005  p :     0.069506
      px      :     0.012923
      py      :     0.034578
 10 H s       :     0.895211  s :     0.895211
      pz      :     0.021939  p :     0.070204
      px      :     0.034019
      py      :     0.014246
 11 H s       :     0.899386  s :     0.899386
      pz      :     0.016324  p :     0.074938
      px      :     0.030164
      py      :     0.028450
 12 H s       :     0.887048  s :     0.887048
      pz      :     0.037424  p :     0.067213
      px      :     0.013456
      py      :     0.016332
 13 H s       :     0.881991  s :     0.881991
      pz      :     0.012608  p :     0.067684
      px      :     0.017580
      py      :     0.037497

SPIN
  0 O s       :     0.010729  s :     0.010729
      pz      :     0.135398  p :     0.828592
      px      :     0.682320
      py      :     0.010874
      dz2     :    -0.000030  d :     0.000115
      dxz     :     0.000203
      dyz     :    -0.000180
      dx2y2   :     0.000036
      dxy     :     0.000086
  1 O s       :     0.019565  s :     0.019565
      pz      :     0.024518  p :     0.113346
      px      :     0.079065
      py      :     0.009763
      dz2     :    -0.000138  d :     0.000971
      dxz     :     0.000551
      dyz     :     0.000026
      dx2y2   :     0.000305
      dxy     :     0.000227
  2 C s       :    -0.000941  s :    -0.000941
      pz      :    -0.003477  p :    -0.006438
      px      :    -0.000927
      py      :    -0.002035
      dz2     :     0.000517  d :     0.002347
      dxz     :     0.001573
      dyz     :    -0.000072
      dx2y2   :     0.000105
      dxy     :     0.000224
  3 C s       :     0.000220  s :     0.000220
      pz      :     0.003438  p :     0.006227
      px      :     0.000775
      py      :     0.002014
      dz2     :    -0.000017  d :     0.001692
      dxz     :     0.000022
      dyz     :     0.000009
      dx2y2   :     0.001877
      dxy     :    -0.000198
  4 C s       :     0.000003  s :     0.000003
      pz      :    -0.006792  p :    -0.012189
      px      :     0.001306
      py      :    -0.006704
      dz2     :     0.000217  d :     0.000954
      dxz     :     0.000151
      dyz     :     0.000051
      dx2y2   :     0.000374
      dxy     :     0.000160
  5 C s       :     0.001071  s :     0.001071
      pz      :     0.013485  p :     0.026471
      px      :     0.004028
      py      :     0.008958
      dz2     :    -0.000162  d :    -0.000346
      dxz     :    -0.000033
      dyz     :    -0.000067
      dx2y2   :    -0.000091
      dxy     :     0.000006
  6 C s       :     0.000077  s :     0.000077
      pz      :     0.000123  p :     0.000432
      px      :    -0.000153
      py      :     0.000461
      dz2     :     0.000002  d :     0.000200
      dxz     :     0.000093
      dyz     :     0.000014
      dx2y2   :    -0.000006
      dxy     :     0.000098
  7 H s       :    -0.018774  s :    -0.018774
      pz      :     0.003841  p :     0.021542
      px      :     0.015038
      py      :     0.002662
  8 H s       :     0.001970  s :     0.001970
      pz      :    -0.000120  p :    -0.000261
      px      :    -0.000060
      py      :    -0.000081
  9 H s       :     0.001797  s :     0.001797
      pz      :     0.000098  p :     0.000038
      px      :     0.000013
      py      :    -0.000072
 10 H s       :     0.000594  s :     0.000594
      pz      :    -0.000137  p :    -0.000284
      px      :     0.000018
      py      :    -0.000164
 11 H s       :    -0.000839  s :    -0.000839
      pz      :     0.000406  p :     0.000880
      px      :     0.000180
      py      :     0.000294
 12 H s       :     0.000062  s :     0.000062
      pz      :     0.000003  p :     0.000082
      px      :     0.000057
      py      :     0.000022
 13 H s       :     0.000106  s :     0.000106
      pz      :     0.000005  p :    -0.000013
      px      :    -0.000016
      py      :    -0.000001


                      *****************************
                      * MAYER POPULATION ANALYSIS *
                      *****************************

  NA   - Mulliken gross atomic population
  ZA   - Total nuclear charge
  QA   - Mulliken gross atomic charge
  VA   - Mayer's total valence
  BVA  - Mayer's bonded valence
  FA   - Mayer's free valence

  ATOM       NA         ZA         QA         VA         BVA        FA
  0 O      8.2569     8.0000    -0.2569     2.0105     1.2769     0.7335
  1 O      8.2900     8.0000    -0.2900     2.0710     2.0547     0.0163
  2 C      5.9724     6.0000     0.0276     3.9671     3.9670     0.0001
  3 C      5.9396     6.0000     0.0604     3.9148     3.9147     0.0001
  4 C      5.9705     6.0000     0.0295     3.7911     3.7908     0.0003
  5 C      6.1212     6.0000    -0.1212     3.9716     3.9707     0.0009
  6 C      5.9184     6.0000     0.0816     3.8258     3.8258     0.0000
  7 H      0.8438     1.0000     0.1562     1.0168     1.0156     0.0012
  8 H      0.9425     1.0000     0.0575     1.0158     1.0158     0.0000
  9 H      0.9563     1.0000     0.0437     0.9889     0.9888     0.0000
 10 H      0.9621     1.0000     0.0379     0.9887     0.9887     0.0000
 11 H      0.9686     1.0000     0.0314     0.9914     0.9914     0.0000
 12 H      0.9324     1.0000     0.0676     0.9785     0.9785     0.0000
 13 H      0.9253     1.0000     0.0747     0.9817     0.9817     0.0000

  Mayer bond orders larger than 0.100000
B(  0-O ,  1-O ) :   0.1805 B(  0-O ,  7-H ) :   0.9971 B(  1-O ,  2-C ) :   0.9097 
B(  1-O ,  3-C ) :   0.8974 B(  2-C ,  3-C ) :   1.0190 B(  2-C ,  6-C ) :   1.0059 
B(  2-C ,  8-H ) :   0.9587 B(  3-C ,  4-C ) :   0.9793 B(  3-C ,  9-H ) :   0.9719 
B(  4-C ,  5-C ) :   1.8279 B(  4-C , 10-H ) :   0.9951 B(  5-C ,  6-C ) :   1.0154 
B(  5-C , 11-H ) :   0.9775 B(  6-C , 12-H ) :   0.9288 B(  6-C , 13-H ) :   0.9266 



------------------
HIRSHFELD ANALYSIS
------------------

Total integrated alpha density =     26.999995649
Total integrated beta density  =     25.999994493

  ATOM     CHARGE      SPIN    
   0 O   -0.262617    0.811405
   1 O   -0.122029    0.134760
   2 C    0.055283   -0.000360
   3 C    0.042675    0.009409
   4 C   -0.048611   -0.005241
   5 C   -0.021241    0.022085
   6 C   -0.037787    0.002211
   7 H    0.126799    0.020736
   8 H    0.049887    0.001601
   9 H    0.048719    0.001506
  10 H    0.044515   -0.000230
  11 H    0.041883    0.001496
  12 H    0.037729    0.000431
  13 H    0.044805    0.000194

  TOTAL   0.000010    1.000001

-------
TIMINGS
-------

Total SCF time: 0 days 0 hours 0 min 59 sec 

Total time                  ....      59.363 sec
Sum of individual times     ....      59.209 sec  ( 99.7%)

Fock matrix formation       ....      57.323 sec  ( 96.6%)
  Split-RI-J                ....       3.444 sec  (  6.0% of F)
  Chain of spheres X        ....      39.059 sec  ( 68.1% of F)
  XC integration            ....      14.825 sec  ( 25.9% of F)
    Basis function eval.    ....       4.228 sec  ( 28.5% of XC)
    Density eval.           ....       4.046 sec  ( 27.3% of XC)
    XC-Functional eval.     ....       1.439 sec  (  9.7% of XC)
    XC-Potential eval.      ....       4.781 sec  ( 32.3% of XC)
Diagonalization             ....       0.094 sec  (  0.2%)
Density matrix formation    ....       0.008 sec  (  0.0%)
Population analysis         ....       0.383 sec  (  0.6%)
Initial guess               ....       0.216 sec  (  0.4%)
Orbital Transformation      ....       0.000 sec  (  0.0%)
Orbital Orthonormalization  ....       0.000 sec  (  0.0%)
DIIS solution               ....       0.023 sec  (  0.0%)
Grid generation             ....       1.162 sec  (  2.0%)

Maximum memory used throughout the entire SCF-calculation: 63.5 MB


-------------------------------------------------------------------------------
                          DFT DISPERSION CORRECTION                            
                                                                               
                              DFTD3 V3.1  Rev 1                                
                          USING Becke-Johnson damping                          
-------------------------------------------------------------------------------
The PBE0 functional is recognized
Active option DFTDOPT                   ...         4   

molecular C6(AA) [au] = 1741.868048 


            DFT-D V3
 parameters
 s6 scaling factor         :     1.0000 
 a1 scaling factor         :     0.4145 
 s8 scaling factor         :     1.2177 
 a2 scaling factor         :     4.8593 
 ad hoc parameters k1-k3   :    16.0000     1.3333    -4.0000 

 Edisp/kcal,au: -6.161632633001  -0.009819185575 
 E6   /kcal   :  -3.919968684 
 E8   /kcal   :  -2.241663949 
 % E8         :  36.381006176 

-------------------------   ----------------
Dispersion correction           -0.009819186
-------------------------   ----------------


-------------------------   --------------------
FINAL SINGLE POINT ENERGY      -344.373440772858
-------------------------   --------------------

------------------------------------------------------------------------------
                         ORCA SCF GRADIENT CALCULATION
------------------------------------------------------------------------------

 ... reading COSX grid (gridx3)
Gradient of the Kohn-Sham DFT energy:
Kohn-Sham wavefunction type      ... UKS
Hartree-Fock exchange scaling    ...    0.250
Number of operators              ...    2
Number of atoms                  ...   14
Basis set dimensions             ...  133
Integral neglect threshold       ... 2.5e-11
Integral primitive cutoff        ... 2.5e-12
SHARK Integral package           ... ON

Nuc. rep. gradient       (SHARK) ... done (  0.0 sec)
HCore & Overlap gradient (SHARK) ... done (  0.1 sec)
RI-J gradient            (SHARK) ... done (  0.6 sec)
COSX-gradient                    ... done (  6.8 sec)
Exchange-correlation gradient    ... done
Dispersion correction            ... done

------------------
CARTESIAN GRADIENT
------------------

   1   O   :    0.024249258   -0.002311627   -0.009796818
   2   O   :    0.005284404   -0.005081538   -0.000576984
   3   C   :   -0.002978680    0.004698459   -0.007931613
   4   C   :   -0.003747334    0.003367531    0.000042601
   5   C   :   -0.008260202   -0.000496152    0.002470351
   6   C   :    0.013878969   -0.012506232    0.005667382
   7   C   :   -0.011298109   -0.000362271    0.000510247
   8   H   :    0.001868747    0.002368327   -0.001864450
   9   H   :   -0.002649415    0.000640727    0.000772058
  10   H   :   -0.003278480   -0.001183158    0.003029680
  11   H   :    0.002535198    0.001074649    0.000286392
  12   H   :   -0.017131471    0.009272712    0.007338423
  13   H   :    0.004666204   -0.000351917    0.000530087
  14   H   :   -0.003119953    0.000935288   -0.000515557

Difference to translation invariance:
           :    0.0000191360    0.0000647968   -0.0000381987

Difference to rotation invariance:
           :   -0.0003891166    0.0001858174   -0.0002653473

Norm of the cartesian gradient     ...    0.0442991067
RMS gradient                       ...    0.0068355006
MAX gradient                       ...    0.0242492582

-------
TIMINGS
-------

Total SCF gradient time            ...       11.577 sec

One electron gradient       ....       0.097 sec  (  0.8%)
RI-J Coulomb gradient       ....       0.604 sec  (  5.2%)
COSX gradient               ....       6.799 sec  ( 58.7%)
XC gradient                 ....       3.766 sec  ( 32.5%)

Maximum memory used throughout the entire SCFGRAD-calculation: 50.3 MB

                            ***************************************
                            *     ORCA property calculations      *
                            ***************************************

                                    ---------------------
                                    Active property flags
                                    ---------------------
   (+) Dipole Moment


------------------------------------------------------------------------------
                       ORCA ELECTRIC PROPERTIES CALCULATION
------------------------------------------------------------------------------

Dipole Moment Calculation                       ... on
Quadrupole Moment Calculation                   ... off
Polarizability Calculation                      ... off
GBWName                                         ... 12_2_orca.gbw
Electron density                                ... 12_2_orca.scfp
The origin for moment calculation is the CENTER OF MASS  = (-0.318427, -0.118007  0.432610)

-------------
DIPOLE MOMENT
-------------
                                X             Y             Z
Electronic contribution:     -0.78152       0.15050       1.88867
Nuclear contribution   :      1.48864       0.71630      -2.51004
                        -----------------------------------------
Total Dipole Moment    :      0.70711       0.86680      -0.62137
                        -----------------------------------------
Magnitude (a.u.)       :      1.27963
Magnitude (Debye)      :      3.25257



--------------------
Rotational spectrum 
--------------------
 
Rotational constants in cm-1:     0.192935     0.068874     0.059149 
Rotational constants in MHz :  5784.034421  2064.780071  1773.230368 

 Dipole components along the rotational axes: 
x,y,z [a.u.] :    -0.926230     0.316289    -0.824332 
x,y,z [Debye]:    -2.354289     0.803943    -2.095284 

 

Timings for individual modules:

Sum of individual times         ...       71.155 sec (=   1.186 min)
GTO integral calculation        ...        0.162 sec (=   0.003 min)   0.2 %
SCF iterations                  ...       59.387 sec (=   0.990 min)  83.5 %
SCF Gradient evaluation         ...       11.606 sec (=   0.193 min)  16.3 %
                             ****ORCA TERMINATED NORMALLY****
TOTAL RUN TIME: 0 days 0 hours 1 minutes 11 seconds 311 msec
