      -----------------------------------------------------------      
     |                   =====================                   |     
     |                           x T B                           |     
     |                   =====================                   |     
     |                         S. Grimme                         |     
     |          Mulliken Center for Theoretical Chemistry        |     
     |                    University of Bonn                     |     
      -----------------------------------------------------------      

   * xtb version 6.6.1 (8d0f1dd) compiled by 'conda@1efc2f54142f' on 2023-08-01

   xtb is free software: you can redistribute it and/or modify it under
   the terms of the GNU Lesser General Public License as published by
   the Free Software Foundation, either version 3 of the License, or
   (at your option) any later version.
   
   xtb is distributed in the hope that it will be useful,
   but WITHOUT ANY WARRANTY; without even the implied warranty of
   MERCHANTABILITY or FITNESS FOR A PARTICULAR PURPOSE.  See the
   GNU Lesser General Public License for more details.
   
   Cite this work as:
   * C. Bannwarth, E. Caldeweyher, S. Ehlert, A. Hansen, P. Pracht,
     J. Seibert, S. Spicher, S. Grimme, WIREs Comput. Mol. Sci., 2020, 11,
     e01493. DOI: 10.1002/wcms.1493
   
   for GFN2-xTB:
   * C. Bannwarth, S. Ehlert and S. Grimme., J. Chem. Theory Comput., 2019,
     15, 1652-1671. DOI: 10.1021/acs.jctc.8b01176
   for GFN1-xTB:
   * S. Grimme, C. Bannwarth, P. Shushkov, J. Chem. Theory Comput., 2017,
     13, 1989-2009. DOI: 10.1021/acs.jctc.7b00118
   for GFN0-xTB:
   * P. Pracht, E. Caldeweyher, S. Ehlert, S. Grimme, ChemRxiv, 2019, preprint.
     DOI: 10.26434/chemrxiv.8326202.v1
   for GFN-FF:
   * S. Spicher and S. Grimme, Angew. Chem. Int. Ed., 2020, 59, 15665-15673.
     DOI: 10.1002/anie.202004239
   
   for ALPB and GBSA implicit solvation:
   * S. Ehlert, M. Stahn, S. Spicher, S. Grimme, J. Chem. Theory Comput.,
     2021, 17, 4250-4261. DOI: 10.1021/acs.jctc.1c00471
   
   for DFT-D4:
   * E. Caldeweyher, C. Bannwarth and S. Grimme, J. Chem. Phys., 2017,
     147, 034112. DOI: 10.1063/1.4993215
   * E. Caldeweyher, S. Ehlert, A. Hansen, H. Neugebauer, S. Spicher,
     C. Bannwarth and S. Grimme, J. Chem. Phys., 2019, 150, 154122.
     DOI: 10.1063/1.5090222
   * E. Caldeweyher, J.-M. Mewes, S. Ehlert and S. Grimme, Phys. Chem. Chem. Phys.
     2020, 22, 8499-8512. DOI: 10.1039/D0CP00502A
   
   for sTDA-xTB:
   * S. Grimme and C. Bannwarth, J. Chem. Phys., 2016, 145, 054103.
     DOI: 10.1063/1.4959605
   
   in the mass-spec context:
   * V. Asgeirsson, C. Bauer and S. Grimme, Chem. Sci., 2017, 8, 4879.
     DOI: 10.1039/c7sc00601b
   * J. Koopman and S. Grimme, ACS Omega 2019, 4, 12, 15120-15133.
     DOI: 10.1021/acsomega.9b02011
   
   for metadynamics refer to:
   * S. Grimme, J. Chem. Theory Comput., 2019, 155, 2847-2862
     DOI: 10.1021/acs.jctc.9b00143
   
   for SPH calculations refer to:
   * S. Spicher and S. Grimme, J. Chem. Theory Comput., 2021, 17, 1701-1714
     DOI: 10.1021/acs.jctc.0c01306
   
   with help from (in alphabetical order)
   P. Atkinson, C. Bannwarth, F. Bohle, G. Brandenburg, E. Caldeweyher
   M. Checinski, S. Dohm, S. Ehlert, S. Ehrlich, I. Gerasimov, C. Hölzer
   A. Katbashev, J. Koopman, C. Lavigne, S. Lehtola, F. März, M. Müller,
   F. Musil, H. Neugebauer, J. Pisarek, C. Plett, P. Pracht, F. Pultar,
   J. Seibert, P. Shushkov, S. Spicher, M. Stahn, M. Steiner, T. Strunk,
   J. Stückrath, T. Rose, and J. Unsleber
   
 * started run on 2025/05/23 at 11:05:32.695     

           -------------------------------------------------
          |                Calculation Setup                |
           -------------------------------------------------

          program call               : /gpfs/fs1/home/copan/code/autode-practice/.pixi/envs/default/bin/xtb path_opt7_xtb.xyz --chrg 0 --uhf 0 --opt --input xcontrol_path_opt7_xtb
          hostname                   : beboplogin4.lcrc.anl.gov
          coordinate file            : path_opt7_xtb.xyz
          omp threads                :                     8

   ID    Z sym.   atoms
    1    6 C      1-6
    2    1 H      7-16
constraining bond 3 4 to    2.0038000 Å, actual value:    1.9538075 Å
constraining bond 5 6 to    2.0036000 Å, actual value:    1.9536043 Å

           -------------------------------------------------
          |                 G F N 2 - x T B                 |
           -------------------------------------------------

        Reference                      10.1021/acs.jctc.8b01176
      * Hamiltonian:
        H0-scaling (s, p, d)           1.850000    2.230000    2.230000
        zeta-weighting                 0.500000
      * Dispersion:
        s8                             2.700000
        a1                             0.520000
        a2                             5.000000
        s9                             5.000000
      * Repulsion:
        kExp                           1.500000    1.000000
        rExp                           1.000000
      * Coulomb:
        alpha                          2.000000
        third order                    shell-resolved
        anisotropic                    true
        a3                             3.000000
        a5                             4.000000
        cn-shift                       1.200000
        cn-exp                         4.000000
        max-rad                        5.000000


          ...................................................
          :                      SETUP                      :
          :.................................................:
          :  # basis functions                  34          :
          :  # atomic orbitals                  34          :
          :  # shells                           22          :
          :  # electrons                        34          :
          :  max. iterations                   250          :
          :  Hamiltonian                  GFN2-xTB          :
          :  restarted?                      false          :
          :  GBSA solvation                  false          :
          :  PC potential                    false          :
          :  electronic temp.          300.0000000     K    :
          :  accuracy                    1.0000000          :
          :  -> integral cutoff          0.2500000E+02      :
          :  -> integral neglect         0.1000000E-07      :
          :  -> SCF convergence          0.1000000E-05 Eh   :
          :  -> wf. convergence          0.1000000E-03 e    :
          :  Broyden damping             0.4000000          :
          ...................................................

 iter      E             dE          RMSdq      gap      omega  full diag
   1    -18.0906032 -0.180906E+02  0.326E+00    4.79       0.0  T
   2    -18.1175517 -0.269486E-01  0.183E+00    4.76       1.0  T
   3    -18.1166039  0.947855E-03  0.736E-01    4.72       1.0  T
   4    -18.1160648  0.539095E-03  0.433E-01    4.74       1.0  T
   5    -18.1188476 -0.278278E-02  0.590E-02    4.73       1.0  T
   6    -18.1188489 -0.131094E-05  0.159E-02    4.73       1.6  T
   7    -18.1188491 -0.181056E-06  0.249E-03    4.73      10.1  T
   8    -18.1188491 -0.570206E-08  0.795E-04    4.73      31.4  T
   9    -18.1188491 -0.333015E-08  0.417E-04    4.73      60.0  T

   *** convergence criteria satisfied after 9 iterations ***

         #    Occupation            Energy/Eh            Energy/eV
      -------------------------------------------------------------
         1        2.0000           -0.6144464             -16.7199
       ...           ...                  ...                  ...
        11        2.0000           -0.4680564             -12.7365
        12        2.0000           -0.4615565             -12.5596
        13        2.0000           -0.4411538             -12.0044
        14        2.0000           -0.4397205             -11.9654
        15        2.0000           -0.3993964             -10.8681
        16        2.0000           -0.3872687             -10.5381
        17        2.0000           -0.3733699             -10.1599 (HOMO)
        18                         -0.1994844              -5.4282 (LUMO)
        19                         -0.1679826              -4.5710
        20                         -0.1472836              -4.0078
        21                          0.1156416               3.1468
        22                          0.1335751               3.6348
       ...                                ...                  ...
        34                          0.6461917              17.5838
      -------------------------------------------------------------
                  HL-Gap            0.1738854 Eh            4.7317 eV
             Fermi-level           -0.2864271 Eh           -7.7941 eV

 SCC (total)                   0 d,  0 h,  0 min,  0.009 sec
 SCC setup                      ...        0 min,  0.000 sec (  2.796%)
 Dispersion                     ...        0 min,  0.000 sec (  1.319%)
 classical contributions        ...        0 min,  0.000 sec (  2.641%)
 integral evaluation            ...        0 min,  0.000 sec (  4.890%)
 iterations                     ...        0 min,  0.006 sec ( 73.554%)
 molecular gradient             ...        0 min,  0.001 sec ( 11.191%)
 printout                       ...        0 min,  0.000 sec (  3.362%)

         :::::::::::::::::::::::::::::::::::::::::::::::::::::
         ::                     SUMMARY                     ::
         :::::::::::::::::::::::::::::::::::::::::::::::::::::
         :: total energy             -17.797718256413 Eh    ::
         :: gradient norm              0.586474024189 Eh/a0 ::
         :: HOMO-LUMO gap              4.731663411652 eV    ::
         ::.................................................::
         :: SCC energy               -18.118849071655 Eh    ::
         :: -> isotropic ES            0.002546939588 Eh    ::
         :: -> anisotropic ES          0.007207080449 Eh    ::
         :: -> anisotropic XC          0.013172633198 Eh    ::
         :: -> dispersion             -0.010229917272 Eh    ::
         :: repulsion energy           0.285400442049 Eh    ::
         :: add. restraining           0.035702242918 Eh    ::
         :: total charge              -0.000000000000 e     ::
         :::::::::::::::::::::::::::::::::::::::::::::::::::::

      ----------------------------------------------------------- 
     |                   =====================                   |
     |                        A N C O P T                        |
     |                   =====================                   |
     |               Approximate Normal Coordinate               |
     |                Rational Function Optimizer                |
      ----------------------------------------------------------- 

          ...................................................
          :                      SETUP                      :
          :.................................................:
          :   optimization level            normal          :
          :   max. optcycles                   200          :
          :   ANC micro-cycles                  20          :
          :   degrees of freedom                42          :
          :.................................................:
          :   RF solver                   davidson          :
          :   write xtbopt.log                true          :
          :   linear?                        false          :
          :   energy convergence         0.5000000E-05 Eh   :
          :   grad. convergence          0.1000000E-02 Eh/α :
          :   maxmium RF displ.          1.0000000          :
          :   Hlow (freq-cutoff)         0.1000000E-01      :
          :   Hmax (freq-cutoff)         5.0000000          :
          :   S6 in model hess.         20.0000000          :
          ...................................................

generating ANC from model Hessian ...
Using Lindh-Hessian (1995)
 Shifting diagonal of input Hessian by    6.5945193801439192E-002
 Lowest  eigenvalues of input Hessian
    0.010000    0.023348    0.034036    0.061495    0.000000    0.000000
    0.000000    0.000000    0.000000    0.000000    0.073487    0.077159
    0.079466    0.087271    0.088535    0.093774    0.095303    0.096357
 Highest eigenvalues
    1.237168    1.324820    1.549511    1.998636    8.471563    8.482901


........................................................................
.............................. CYCLE    1 ..............................
........................................................................

 iter      E             dE          RMSdq      gap      omega  full diag
   1    -18.1188491 -0.181188E+02  0.113E-04    4.73       0.0  T
   2    -18.1188491 -0.970957E-11  0.673E-05    4.73     371.7  T
   3    -18.1188491  0.124345E-12  0.488E-05    4.73     512.2  T
     SCC iter.                  ...        0 min,  0.002 sec
     gradient                   ...        0 min,  0.001 sec
 * total energy  :   -17.7977183 Eh     change       -0.1989626E-08 Eh
   gradient norm :     0.5864742 Eh/α   predicted     0.0000000E+00 (-100.00%)
   displ. norm   :     0.1235878 α      lambda       -0.6840049E-01
   maximum displ.:     0.1156505 α      in ANC's #41, #27, #11, ...

........................................................................
.............................. CYCLE    2 ..............................
........................................................................

 iter      E             dE          RMSdq      gap      omega  full diag
   1    -18.1058868 -0.181059E+02  0.131E-01    4.30       0.0  T
   2    -18.1059045 -0.177506E-04  0.757E-02    4.30       1.0  T
   3    -18.1059026  0.194543E-05  0.204E-02    4.30       1.2  T
   4    -18.1059026 -0.324836E-07  0.124E-02    4.30       2.0  T
   5    -18.1059051 -0.252241E-05  0.111E-03    4.30      22.5  T
   6    -18.1059051 -0.158286E-08  0.535E-04    4.30      46.7  T
   7    -18.1059051 -0.614264E-10  0.882E-05    4.30     283.4  T
     SCC iter.                  ...        0 min,  0.004 sec
     gradient                   ...        0 min,  0.001 sec
 * total energy  :   -17.8113919 Eh     change       -0.1367361E-01 Eh
   gradient norm :     0.3542071 Eh/α   predicted    -0.3472262E-01 ( 153.94%)
   displ. norm   :     0.0451842 α      lambda       -0.1546271E-01
   maximum displ.:     0.0435277 α      in ANC's #41, #9, #2, ...

........................................................................
.............................. CYCLE    3 ..............................
........................................................................

 iter      E             dE          RMSdq      gap      omega  full diag
   1    -18.1089111 -0.181089E+02  0.672E-02    4.48       0.0  T
   2    -18.1089151 -0.405016E-05  0.382E-02    4.49       1.0  T
   3    -18.1089145  0.593437E-06  0.105E-02    4.48       2.4  T
   4    -18.1089147 -0.199149E-06  0.582E-03    4.48       4.3  T
   5    -18.1089153 -0.550754E-06  0.382E-04    4.48      65.5  T
   6    -18.1089153 -0.237080E-09  0.201E-04    4.48     124.3  T
     SCC iter.                  ...        0 min,  0.003 sec
     gradient                   ...        0 min,  0.001 sec
 * total energy  :   -17.8191585 Eh     change       -0.7766660E-02 Eh
   gradient norm :     0.0024417 Eh/α   predicted    -0.7747142E-02 (  -0.25%)
   displ. norm   :     0.0194666 α      lambda       -0.3033085E-04
   maximum displ.:     0.0120266 α      in ANC's #2, #9, #11, ...

........................................................................
.............................. CYCLE    4 ..............................
........................................................................

 iter      E             dE          RMSdq      gap      omega  full diag
   1    -18.1082528 -0.181083E+02  0.179E-02    4.49       0.0  T
   2    -18.1082529 -0.357570E-07  0.104E-02    4.49       2.4  T
   3    -18.1082527  0.163296E-06  0.335E-03    4.49       7.5  T
   4    -18.1082529 -0.179011E-06  0.500E-04    4.49      50.0  T
   5    -18.1082529 -0.264414E-08  0.147E-04    4.49     170.1  T
     SCC iter.                  ...        0 min,  0.003 sec
     gradient                   ...        0 min,  0.001 sec
 * total energy  :   -17.8191809 Eh     change       -0.2239196E-04 Eh
   gradient norm :     0.0015419 Eh/α   predicted    -0.1516931E-04 ( -32.26%)
   displ. norm   :     0.0532418 α      lambda       -0.3812761E-04
   maximum displ.:     0.0328263 α      in ANC's #9, #1, #11, ...

........................................................................
.............................. CYCLE    5 ..............................
........................................................................

 iter      E             dE          RMSdq      gap      omega  full diag
   1    -18.1060991 -0.181061E+02  0.590E-02    4.49       0.0  T
   2    -18.1060996 -0.430293E-06  0.343E-02    4.49       1.0  T
   3    -18.1060973  0.223701E-05  0.124E-02    4.49       2.0  T
   4    -18.1060998 -0.244999E-05  0.159E-03    4.49      15.7  T
   5    -18.1060998 -0.280315E-07  0.532E-04    4.49      47.0  T
   6    -18.1060998 -0.805642E-09  0.335E-04    4.49      74.6  T
     SCC iter.                  ...        0 min,  0.003 sec
     gradient                   ...        0 min,  0.001 sec
 * total energy  :   -17.8191626 Eh     change        0.1831093E-04 Eh
   gradient norm :     0.0043676 Eh/α   predicted    -0.1908945E-04 (-204.25%)
   displ. norm   :     0.0402057 α      lambda       -0.6276174E-04
   maximum displ.:     0.0382573 α      in ANC's #1, #2, #9, ...

........................................................................
.............................. CYCLE    6 ..............................
........................................................................

 iter      E             dE          RMSdq      gap      omega  full diag
   1    -18.1062772 -0.181063E+02  0.464E-02    4.49       0.0  T
   2    -18.1062773 -0.129509E-06  0.275E-02    4.49       1.0  T
   3    -18.1062748  0.251836E-05  0.133E-02    4.49       1.9  T
   4    -18.1062775 -0.275142E-05  0.104E-03    4.49      24.1  T
   5    -18.1062775 -0.931375E-08  0.473E-04    4.49      52.9  T
   6    -18.1062775 -0.983842E-09  0.244E-04    4.49     102.4  T
     SCC iter.                  ...        0 min,  0.003 sec
     gradient                   ...        0 min,  0.001 sec
 * total energy  :   -17.8191774 Eh     change       -0.1483580E-04 Eh
   gradient norm :     0.0031041 Eh/α   predicted    -0.3143150E-04 ( 111.86%)
   displ. norm   :     0.0444151 α      lambda       -0.8044735E-04
   maximum displ.:     0.0251639 α      in ANC's #2, #1, #9, ...

........................................................................
.............................. CYCLE    7 ..............................
........................................................................

 iter      E             dE          RMSdq      gap      omega  full diag
   1    -18.1082922 -0.181083E+02  0.563E-02    4.49       0.0  T
   2    -18.1082925 -0.293422E-06  0.330E-02    4.49       1.0  T
   3    -18.1082899  0.262466E-05  0.137E-02    4.49       1.8  T
   4    -18.1082928 -0.288514E-05  0.117E-03    4.49      21.4  T
   5    -18.1082928 -0.130493E-07  0.485E-04    4.49      51.5  T
   6    -18.1082928 -0.722679E-09  0.303E-04    4.49      82.4  T
     SCC iter.                  ...        0 min,  0.003 sec
     gradient                   ...        0 min,  0.001 sec
 * total energy  :   -17.8191801 Eh     change       -0.2651313E-05 Eh
   gradient norm :     0.0044335 Eh/α   predicted    -0.4030336E-04 (1420.13%)
   displ. norm   :     0.0221060 α      lambda       -0.4712700E-04
   maximum displ.:     0.0188016 α      in ANC's #2, #9, #6, ...

........................................................................
.............................. CYCLE    8 ..............................
........................................................................

 iter      E             dE          RMSdq      gap      omega  full diag
   1    -18.1076830 -0.181077E+02  0.316E-02    4.49       0.0  T
   2    -18.1076830 -0.266708E-07  0.186E-02    4.49       1.3  T
   3    -18.1076826  0.411017E-06  0.521E-03    4.49       4.8  T
   4    -18.1076831 -0.448717E-06  0.328E-04    4.49      76.2  T
   5    -18.1076831 -0.402935E-09  0.176E-04    4.49     142.2  T
     SCC iter.                  ...        0 min,  0.003 sec
     gradient                   ...        0 min,  0.001 sec
 * total energy  :   -17.8192035 Eh     change       -0.2343302E-04 Eh
   gradient norm :     0.0005389 Eh/α   predicted    -0.2357389E-04 (   0.60%)
   displ. norm   :     0.0155107 α      lambda       -0.2952133E-05
   maximum displ.:     0.0104989 α      in ANC's #2, #9, #6, ...

........................................................................
.............................. CYCLE    9 ..............................
........................................................................

 iter      E             dE          RMSdq      gap      omega  full diag
   1    -18.1074506 -0.181075E+02  0.674E-03    4.49       0.0  T
   2    -18.1074506 -0.645063E-08  0.393E-03    4.49       6.4  T
   3    -18.1074506  0.314377E-08  0.602E-04    4.49      41.6  T
   4    -18.1074506 -0.343089E-08  0.281E-04    4.49      89.1  T
     SCC iter.                  ...        0 min,  0.002 sec
     gradient                   ...        0 min,  0.001 sec
 * total energy  :   -17.8192068 Eh     change       -0.3251619E-05 Eh
   gradient norm :     0.0005911 Eh/α   predicted    -0.1475877E-05 ( -54.61%)
   displ. norm   :     0.0404663 α      lambda       -0.7246672E-05
   maximum displ.:     0.0270524 α      in ANC's #2, #9, #6, ...

   *** GEOMETRY OPTIMIZATION CONVERGED AFTER 9 ITERATIONS ***

------------------------------------------------------------------------
 total energy gain   :        -0.0214885 Eh      -13.4843 kcal/mol
 total RMSD          :         0.0323727 a0        0.0171 Å
 total power (kW/mol):        -6.2686796 (step)-1131.7013 (real)
------------------------------------------------------------------------

 ANCopt (total)                0 d,  0 h,  0 min,  0.050 sec
 optimizer setup                ...        0 min,  0.000 sec (  0.385%)
 model hessian                  ...        0 min,  0.007 sec ( 14.070%)
 ANC generation                 ...        0 min,  0.000 sec (  0.931%)
 coordinate transformation      ...        0 min,  0.000 sec (  0.126%)
 single point calculation       ...        0 min,  0.037 sec ( 75.133%)
 optimization log               ...        0 min,  0.001 sec (  2.991%)
 hessian update                 ...        0 min,  0.000 sec (  0.216%)
 rational function              ...        0 min,  0.001 sec (  2.847%)

================
 final structure:
================
16
 xtb: 6.6.1 (8d0f1dd)
C            0.22553628553547        1.57314102080417       -0.32012774372647
C           -1.03799736616455        1.24183456086178       -0.09385577089883
C           -1.60031981626649       -0.08491338021580        0.20998544990304
C           -0.15151021521663       -1.36050936975862        0.70424199096163
C            0.89353548520982       -1.21081895398103       -0.32321382467593
C            1.41938815421859        0.71085071031913       -0.30498522276739
H            0.44785004540720        2.61496577706387       -0.53574444638085
H           -1.78718549509515        2.02765208430511       -0.14400917426183
H           -2.24842678154987       -0.09443042786048        1.07760617532282
H           -2.06204393870822       -0.56810647576665       -0.64365795585197
H            0.14072396712808       -1.05589790060319        1.69958204446720
H           -0.67776776836886       -2.30837376618854        0.69399301690302
H            1.83507934022098       -1.70008262797085       -0.10031003686289
H            0.56342901063851       -1.38423625984238       -1.33811470940036
H            2.00118978478841        0.78986346487223        0.60650206523080
H            2.03865930822273        0.80936154396127       -1.18791185796199

 Bond Distances (Angstroems)
 ---------------------------
C1-C2=1.3257         C1-C6=1.4728         C1-H7=1.0869         C2-C1=1.3257         C2-C3=1.4727         C2-H8=1.0869         
C3-C2=1.4727         C3-H9=1.0830         C3-H10=1.0841        C4-C5=1.4732         C4-H11=1.0812        C4-H12=1.0842        
C5-C4=1.4732         C5-H13=1.0842        C5-H14=1.0812        C6-C1=1.4728         C6-H15=1.0842        C6-H16=1.0829        
H7-C1=1.0869         H8-C2=1.0869         H9-C3=1.0830         H10-C3=1.0841        H11-C4=1.0812        H12-C4=1.0842        
H13-C5=1.0842        H14-C5=1.0812        H15-C6=1.0842        H16-C6=1.0829        
 C  H  Rav=1.0839 sigma=0.0019  Rmin=1.0812  Rmax=1.0869    10
 C  C  Rav=1.4361 sigma=0.0637  Rmin=1.3257  Rmax=1.4732     4

 selected bond angles (degree)
 --------------------
C6-C1-C2=128.65                H7-C1-C2=117.93                H7-C1-C6=113.42                C3-C2-C1=128.63                
H8-C2-C1=117.93                H8-C2-C3=113.43                H9-C3-C2=113.68                H10-C3-C2=113.68               
H10-C3-H9=111.84               H11-C4-C5=114.94               H12-C4-C5=115.25               H12-C4-H11=112.72              
H13-C5-C4=115.26               H14-C5-C4=114.95               H14-C5-H13=112.69              H15-C6-C1=113.64               
H16-C6-C1=113.70               H16-C6-H15=111.83              

 selected dihedral angles (degree)
 ---------------------------------
C3-C2-C1-C6=358.71            C3-C2-C1-H7=179.63            H8-C2-C1-C6=179.59            H8-C2-C1-H7=  0.51            
H9-C3-C2-C1=129.86            H9-C3-C2-H8=309.01            H10-C3-C2-C1=259.36           H10-C3-C2-H8= 78.51           
H13-C5-C4-H11= 54.44          H13-C5-C4-H12=280.79          H14-C5-C4-H11=188.07          H14-C5-C4-H12= 54.42          
H15-C6-C1-C2=259.06           H15-C6-C1-H7= 78.18           H16-C6-C1-C2=129.61           H16-C6-C1-H7=308.72           
           -------------------------------------------------
          |                Final Singlepoint                |
           -------------------------------------------------

          ...................................................
          :                      SETUP                      :
          :.................................................:
          :  # basis functions                  34          :
          :  # atomic orbitals                  34          :
          :  # shells                           22          :
          :  # electrons                        34          :
          :  max. iterations                   250          :
          :  Hamiltonian                  GFN2-xTB          :
          :  restarted?                      false          :
          :  GBSA solvation                  false          :
          :  PC potential                    false          :
          :  electronic temp.          300.0000000     K    :
          :  accuracy                    1.0000000          :
          :  -> integral cutoff          0.2500000E+02      :
          :  -> integral neglect         0.1000000E-07      :
          :  -> SCF convergence          0.1000000E-05 Eh   :
          :  -> wf. convergence          0.1000000E-03 e    :
          :  Broyden damping             0.4000000          :
          ...................................................

 iter      E             dE          RMSdq      gap      omega  full diag
   1    -18.1074506 -0.181075E+02  0.906E-05    4.49       0.0  T
   2    -18.1074506 -0.333245E-11  0.599E-05    4.49     417.6  T
   3    -18.1074506 -0.161755E-10  0.370E-05    4.49     676.6  T

   *** convergence criteria satisfied after 3 iterations ***

         #    Occupation            Energy/Eh            Energy/eV
      -------------------------------------------------------------
         1        2.0000           -0.6141096             -16.7108
       ...           ...                  ...                  ...
        11        2.0000           -0.4678988             -12.7322
        12        2.0000           -0.4610814             -12.5467
        13        2.0000           -0.4418183             -12.0225
        14        2.0000           -0.4389469             -11.9444
        15        2.0000           -0.3971917             -10.8081
        16        2.0000           -0.3859983             -10.5035
        17        2.0000           -0.3702915             -10.0761 (HOMO)
        18                         -0.2054108              -5.5895 (LUMO)
        19                         -0.1756319              -4.7792
        20                         -0.1586633              -4.3174
        21                          0.1153943               3.1400
        22                          0.1334356               3.6310
       ...                                ...                  ...
        34                          0.6470270              17.6065
      -------------------------------------------------------------
                  HL-Gap            0.1648806 Eh            4.4866 eV
             Fermi-level           -0.2878511 Eh           -7.8328 eV

 SCC (total)                   0 d,  0 h,  0 min,  0.004 sec
 SCC setup                      ...        0 min,  0.000 sec (  4.811%)
 Dispersion                     ...        0 min,  0.000 sec (  1.648%)
 classical contributions        ...        0 min,  0.000 sec (  0.281%)
 integral evaluation            ...        0 min,  0.000 sec (  9.076%)
 iterations                     ...        0 min,  0.002 sec ( 51.143%)
 molecular gradient             ...        0 min,  0.001 sec ( 24.598%)
 printout                       ...        0 min,  0.000 sec (  7.881%)

         :::::::::::::::::::::::::::::::::::::::::::::::::::::
         ::                     SUMMARY                     ::
         :::::::::::::::::::::::::::::::::::::::::::::::::::::
         :: total energy             -17.819206782965 Eh    ::
         :: gradient norm              0.000590729099 Eh/a0 ::
         :: HOMO-LUMO gap              4.486630362043 eV    ::
         ::.................................................::
         :: SCC energy               -18.107450579139 Eh    ::
         :: -> isotropic ES            0.002570905810 Eh    ::
         :: -> anisotropic ES          0.007379042194 Eh    ::
         :: -> anisotropic XC          0.013297487139 Eh    ::
         :: -> dispersion             -0.010495733617 Eh    ::
         :: repulsion energy           0.286424107827 Eh    ::
         :: add. restraining           0.001790192501 Eh    ::
         :: total charge               0.000000000000 e     ::
         :::::::::::::::::::::::::::::::::::::::::::::::::::::

           -------------------------------------------------
          |                Property Printout                |
           -------------------------------------------------

    * Orbital Energies and Occupations

         #    Occupation            Energy/Eh            Energy/eV
      -------------------------------------------------------------
         1        2.0000           -0.6141096             -16.7108
       ...           ...                  ...                  ...
         5        2.0000           -0.5488949             -14.9362
         6        2.0000           -0.5188555             -14.1188
         7        2.0000           -0.5069267             -13.7942
         8        2.0000           -0.4912899             -13.3687
         9        2.0000           -0.4739735             -12.8975
        10        2.0000           -0.4737162             -12.8905
        11        2.0000           -0.4678988             -12.7322
        12        2.0000           -0.4610814             -12.5467
        13        2.0000           -0.4418183             -12.0225
        14        2.0000           -0.4389469             -11.9444
        15        2.0000           -0.3971917             -10.8081
        16        2.0000           -0.3859983             -10.5035
        17        2.0000           -0.3702915             -10.0761 (HOMO)
        18                         -0.2054108              -5.5895 (LUMO)
        19                         -0.1756319              -4.7792
        20                         -0.1586633              -4.3174
        21                          0.1153943               3.1400
        22                          0.1334356               3.6310
        23                          0.1553625               4.2276
        24                          0.1772688               4.8237
        25                          0.1964412               5.3454
        26                          0.2088968               5.6844
        27                          0.2194331               5.9711
        28                          0.2407042               6.5499
       ...                                ...                  ...
        34                          0.6470270              17.6065
      -------------------------------------------------------------
                  HL-Gap            0.1648806 Eh            4.4866 eV
             Fermi-level           -0.2878511 Eh           -7.8328 eV

     #   Z          covCN         q      C6AA      α(0)
     1   6 C        2.887    -0.036    28.882     8.811
     2   6 C        2.887    -0.036    28.882     8.811
     3   6 C        3.337    -0.070    27.093     8.239
     4   6 C        3.335    -0.064    26.993     8.231
     5   6 C        3.335    -0.064    26.984     8.229
     6   6 C        3.338    -0.070    27.084     8.237
     7   1 H        0.925     0.026     2.641     2.541
     8   1 H        0.925     0.026     2.641     2.541
     9   1 H        0.925     0.036     2.502     2.473
    10   1 H        0.925     0.040     2.448     2.447
    11   1 H        0.926     0.036     2.508     2.477
    12   1 H        0.925     0.032     2.565     2.504
    13   1 H        0.925     0.031     2.566     2.505
    14   1 H        0.925     0.036     2.509     2.477
    15   1 H        0.925     0.040     2.448     2.447
    16   1 H        0.925     0.036     2.501     2.473

 Mol. C6AA /au·bohr⁶  :       2250.875793
 Mol. C8AA /au·bohr⁸  :      50586.623692
 Mol. α(0) /au        :         75.443778


Wiberg/Mayer (AO) data.
largest (>0.10) Wiberg bond orders for each atom

 ---------------------------------------------------------------------------
     #   Z sym  total        # sym  WBO       # sym  WBO       # sym  WBO
 ---------------------------------------------------------------------------
     1   6 C    3.992 --     2 C    1.908     6 C    1.059     7 H    0.952
     2   6 C    3.992 --     1 C    1.908     3 C    1.059     8 H    0.952
     3   6 C    3.991 --     2 C    1.059     9 H    0.973    10 H    0.967
                             4 C    0.915
     4   6 C    3.992 --     5 C    1.079    11 H    0.984    12 H    0.971
                             3 C    0.915
     5   6 C    3.992 --     4 C    1.079    14 H    0.984    13 H    0.971
                             6 C    0.916
     6   6 C    3.991 --     1 C    1.059    16 H    0.973    15 H    0.967
                             5 C    0.916
     7   1 H    0.999 --     1 C    0.952
     8   1 H    0.999 --     2 C    0.952
     9   1 H    0.999 --     3 C    0.973
    10   1 H    0.998 --     3 C    0.967
    11   1 H    0.999 --     4 C    0.984
    12   1 H    0.999 --     4 C    0.971
    13   1 H    0.999 --     5 C    0.971
    14   1 H    0.999 --     5 C    0.984
    15   1 H    0.998 --     6 C    0.967
    16   1 H    0.999 --     6 C    0.973
 ---------------------------------------------------------------------------

Topologies differ in total number of bonds
Writing topology from bond orders to xtbtopo.mol

molecular dipole:
                 x           y           z       tot (Debye)
 q only:        0.020      -0.070       0.010
   full:        0.021      -0.071       0.010       0.190
molecular quadrupole (traceless):
                xx          xy          yy          xz          yz          zz
 q only:        0.630       0.213      -0.145      -0.178      -0.094      -0.485
  q+dip:        1.410       0.375       0.182      -0.024      -0.254      -1.592
   full:        0.927       0.264       0.076       0.000      -0.149      -1.003

           -------------------------------------------------
          |                Geometry Summary                 |
           -------------------------------------------------

      molecular mass/u    :       82.1438229
   center of mass at/Å    :       -0.0336678       0.1164806      -0.0171393
  moments of inertia/u·Å² :        0.1172920E+03   0.1337864E+03   0.2283376E+03
rotational constants/cm⁻¹ :        0.1437236E+00   0.1260040E+00   0.7382768E-01

 * 12 selected distances

     #   Z          #   Z                                           value/Å
     1   6 C        2   6 C                                       1.3257000
     4   6 C        5   6 C                                       1.4731577 (max)
     1   6 C        7   1 H                                       1.0868822
     2   6 C        8   1 H                                       1.0868798
     3   6 C        9   1 H                                       1.0830047
     3   6 C       10   1 H                                       1.0841458
     4   6 C       11   1 H                                       1.0811526 (min)
     4   6 C       12   1 H                                       1.0842044
     5   6 C       13   1 H                                       1.0842371
     5   6 C       14   1 H                                       1.0812344
     6   6 C       15   1 H                                       1.0842257
     6   6 C       16   1 H                                       1.0829408

 * 2 distinct bonds (by element types)

   Z      Z             #   av. dist./Å        max./Å        min./Å
   1 H    6 C          10     1.0838908     1.0868822     1.0811526
   6 C    6 C           2     1.3994289     1.4731577     1.3257000


optimized geometry written to: xtbopt.xyz


           -------------------------------------------------
          | TOTAL ENERGY              -17.819206782965 Eh   |
          | GRADIENT NORM               0.000590729099 Eh/α |
          | HOMO-LUMO GAP               4.486630362043 eV   |
           -------------------------------------------------

------------------------------------------------------------------------
 * finished run on 2025/05/23 at 11:05:32.770     
------------------------------------------------------------------------
 total:
 * wall-time:     0 d,  0 h,  0 min,  0.074 sec
 *  cpu-time:     0 d,  0 h,  0 min,  1.028 sec
 * ratio c/w:    13.832 speedup
 SCF:
 * wall-time:     0 d,  0 h,  0 min,  0.009 sec
 *  cpu-time:     0 d,  0 h,  0 min,  0.132 sec
 * ratio c/w:    14.573 speedup
 ANC optimizer:
 * wall-time:     0 d,  0 h,  0 min,  0.055 sec
 *  cpu-time:     0 d,  0 h,  0 min,  0.775 sec
 * ratio c/w:    14.158 speedup

