      -----------------------------------------------------------      
     |                   =====================                   |     
     |                           x T B                           |     
     |                   =====================                   |     
     |                         S. Grimme                         |     
     |          Mulliken Center for Theoretical Chemistry        |     
     |                    University of Bonn                     |     
      -----------------------------------------------------------      

   * xtb version 6.6.1 (8d0f1dd) compiled by 'conda@1efc2f54142f' on 2023-08-01

   xtb is free software: you can redistribute it and/or modify it under
   the terms of the GNU Lesser General Public License as published by
   the Free Software Foundation, either version 3 of the License, or
   (at your option) any later version.
   
   xtb is distributed in the hope that it will be useful,
   but WITHOUT ANY WARRANTY; without even the implied warranty of
   MERCHANTABILITY or FITNESS FOR A PARTICULAR PURPOSE.  See the
   GNU Lesser General Public License for more details.
   
   Cite this work as:
   * C. Bannwarth, E. Caldeweyher, S. Ehlert, A. Hansen, P. Pracht,
     J. Seibert, S. Spicher, S. Grimme, WIREs Comput. Mol. Sci., 2020, 11,
     e01493. DOI: 10.1002/wcms.1493
   
   for GFN2-xTB:
   * C. Bannwarth, S. Ehlert and S. Grimme., J. Chem. Theory Comput., 2019,
     15, 1652-1671. DOI: 10.1021/acs.jctc.8b01176
   for GFN1-xTB:
   * S. Grimme, C. Bannwarth, P. Shushkov, J. Chem. Theory Comput., 2017,
     13, 1989-2009. DOI: 10.1021/acs.jctc.7b00118
   for GFN0-xTB:
   * P. Pracht, E. Caldeweyher, S. Ehlert, S. Grimme, ChemRxiv, 2019, preprint.
     DOI: 10.26434/chemrxiv.8326202.v1
   for GFN-FF:
   * S. Spicher and S. Grimme, Angew. Chem. Int. Ed., 2020, 59, 15665-15673.
     DOI: 10.1002/anie.202004239
   
   for ALPB and GBSA implicit solvation:
   * S. Ehlert, M. Stahn, S. Spicher, S. Grimme, J. Chem. Theory Comput.,
     2021, 17, 4250-4261. DOI: 10.1021/acs.jctc.1c00471
   
   for DFT-D4:
   * E. Caldeweyher, C. Bannwarth and S. Grimme, J. Chem. Phys., 2017,
     147, 034112. DOI: 10.1063/1.4993215
   * E. Caldeweyher, S. Ehlert, A. Hansen, H. Neugebauer, S. Spicher,
     C. Bannwarth and S. Grimme, J. Chem. Phys., 2019, 150, 154122.
     DOI: 10.1063/1.5090222
   * E. Caldeweyher, J.-M. Mewes, S. Ehlert and S. Grimme, Phys. Chem. Chem. Phys.
     2020, 22, 8499-8512. DOI: 10.1039/D0CP00502A
   
   for sTDA-xTB:
   * S. Grimme and C. Bannwarth, J. Chem. Phys., 2016, 145, 054103.
     DOI: 10.1063/1.4959605
   
   in the mass-spec context:
   * V. Asgeirsson, C. Bauer and S. Grimme, Chem. Sci., 2017, 8, 4879.
     DOI: 10.1039/c7sc00601b
   * J. Koopman and S. Grimme, ACS Omega 2019, 4, 12, 15120-15133.
     DOI: 10.1021/acsomega.9b02011
   
   for metadynamics refer to:
   * S. Grimme, J. Chem. Theory Comput., 2019, 155, 2847-2862
     DOI: 10.1021/acs.jctc.9b00143
   
   for SPH calculations refer to:
   * S. Spicher and S. Grimme, J. Chem. Theory Comput., 2021, 17, 1701-1714
     DOI: 10.1021/acs.jctc.0c01306
   
   with help from (in alphabetical order)
   P. Atkinson, C. Bannwarth, F. Bohle, G. Brandenburg, E. Caldeweyher
   M. Checinski, S. Dohm, S. Ehlert, S. Ehrlich, I. Gerasimov, C. Hölzer
   A. Katbashev, J. Koopman, C. Lavigne, S. Lehtola, F. März, M. Müller,
   F. Musil, H. Neugebauer, J. Pisarek, C. Plett, P. Pracht, F. Pultar,
   J. Seibert, P. Shushkov, S. Spicher, M. Stahn, M. Steiner, T. Strunk,
   J. Stückrath, T. Rose, and J. Unsleber
   
 * started run on 2025/05/23 at 11:05:32.907     

           -------------------------------------------------
          |                Calculation Setup                |
           -------------------------------------------------

          program call               : /gpfs/fs1/home/copan/code/autode-practice/.pixi/envs/default/bin/xtb path_opt8_xtb.xyz --chrg 0 --uhf 0 --opt --input xcontrol_path_opt8_xtb
          hostname                   : beboplogin4.lcrc.anl.gov
          coordinate file            : path_opt8_xtb.xyz
          omp threads                :                     8

   ID    Z sym.   atoms
    1    6 C      1-6
    2    1 H      7-16
constraining bond 3 4 to    2.0426000 Å, actual value:    1.9926087 Å
constraining bond 5 6 to    2.0424000 Å, actual value:    1.9924022 Å

molecular fragmentation (1/2 indicates fragments):
1112211111222211
# atoms in fragment 1/2:    10     6
 fragment masses (1/2) :       54.09       28.05
CMA distance (Bohr)    :   4.372
constraining FC (au)   :  2.0000

           -------------------------------------------------
          |                 G F N 2 - x T B                 |
           -------------------------------------------------

        Reference                      10.1021/acs.jctc.8b01176
      * Hamiltonian:
        H0-scaling (s, p, d)           1.850000    2.230000    2.230000
        zeta-weighting                 0.500000
      * Dispersion:
        s8                             2.700000
        a1                             0.520000
        a2                             5.000000
        s9                             5.000000
      * Repulsion:
        kExp                           1.500000    1.000000
        rExp                           1.000000
      * Coulomb:
        alpha                          2.000000
        third order                    shell-resolved
        anisotropic                    true
        a3                             3.000000
        a5                             4.000000
        cn-shift                       1.200000
        cn-exp                         4.000000
        max-rad                        5.000000


          ...................................................
          :                      SETUP                      :
          :.................................................:
          :  # basis functions                  34          :
          :  # atomic orbitals                  34          :
          :  # shells                           22          :
          :  # electrons                        34          :
          :  max. iterations                   250          :
          :  Hamiltonian                  GFN2-xTB          :
          :  restarted?                      false          :
          :  GBSA solvation                  false          :
          :  PC potential                    false          :
          :  electronic temp.          300.0000000     K    :
          :  accuracy                    1.0000000          :
          :  -> integral cutoff          0.2500000E+02      :
          :  -> integral neglect         0.1000000E-07      :
          :  -> SCF convergence          0.1000000E-05 Eh   :
          :  -> wf. convergence          0.1000000E-03 e    :
          :  Broyden damping             0.4000000          :
          ...................................................

 iter      E             dE          RMSdq      gap      omega  full diag
   1    -18.0791729 -0.180792E+02  0.327E+00    4.52       0.0  T
   2    -18.1059564 -0.267835E-01  0.184E+00    4.49       1.0  T
   3    -18.1040321  0.192429E-02  0.783E-01    4.48       1.0  T
   4    -18.1037325  0.299653E-03  0.501E-01    4.49       1.0  T
   5    -18.1074481 -0.371565E-02  0.600E-02    4.49       1.0  T
   6    -18.1074494 -0.126602E-05  0.163E-02    4.49       1.5  T
   7    -18.1074496 -0.193577E-06  0.260E-03    4.49       9.6  T
   8    -18.1074496 -0.112366E-07  0.860E-04    4.49      29.1  T
   9    -18.1074496 -0.230659E-08  0.374E-04    4.49      66.9  T

   *** convergence criteria satisfied after 9 iterations ***

         #    Occupation            Energy/Eh            Energy/eV
      -------------------------------------------------------------
         1        2.0000           -0.6141080             -16.7107
       ...           ...                  ...                  ...
        11        2.0000           -0.4678980             -12.7322
        12        2.0000           -0.4610806             -12.5466
        13        2.0000           -0.4418174             -12.0225
        14        2.0000           -0.4389467             -11.9443
        15        2.0000           -0.3971908             -10.8081
        16        2.0000           -0.3859965             -10.5035
        17        2.0000           -0.3702901             -10.0761 (HOMO)
        18                         -0.2054108              -5.5895 (LUMO)
        19                         -0.1756320              -4.7792
        20                         -0.1586621              -4.3174
        21                          0.1153958               3.1401
        22                          0.1334360               3.6310
       ...                                ...                  ...
        34                          0.6470122              17.6061
      -------------------------------------------------------------
                  HL-Gap            0.1648792 Eh            4.4866 eV
             Fermi-level           -0.2878504 Eh           -7.8328 eV

 SCC (total)                   0 d,  0 h,  0 min,  0.009 sec
 SCC setup                      ...        0 min,  0.000 sec (  2.792%)
 Dispersion                     ...        0 min,  0.000 sec (  1.349%)
 classical contributions        ...        0 min,  0.000 sec (  2.200%)
 integral evaluation            ...        0 min,  0.000 sec (  4.703%)
 iterations                     ...        0 min,  0.007 sec ( 74.596%)
 molecular gradient             ...        0 min,  0.001 sec ( 10.870%)
 printout                       ...        0 min,  0.000 sec (  3.258%)

         :::::::::::::::::::::::::::::::::::::::::::::::::::::
         ::                     SUMMARY                     ::
         :::::::::::::::::::::::::::::::::::::::::::::::::::::
         :: total energy             -17.785294017450 Eh    ::
         :: gradient norm              0.586492571195 Eh/a0 ::
         :: HOMO-LUMO gap              4.486592451801 eV    ::
         ::.................................................::
         :: SCC energy               -18.107449608321 Eh    ::
         :: -> isotropic ES            0.002570635115 Eh    ::
         :: -> anisotropic ES          0.007379029343 Eh    ::
         :: -> anisotropic XC          0.013297480772 Eh    ::
         :: -> dispersion             -0.010495753575 Eh    ::
         :: repulsion energy           0.286423261714 Eh    ::
         :: add. restraining           0.035702833307 Eh    ::
         :: total charge              -0.000000000000 e     ::
         :::::::::::::::::::::::::::::::::::::::::::::::::::::

      ----------------------------------------------------------- 
     |                   =====================                   |
     |                        A N C O P T                        |
     |                   =====================                   |
     |               Approximate Normal Coordinate               |
     |                Rational Function Optimizer                |
      ----------------------------------------------------------- 

          ...................................................
          :                      SETUP                      :
          :.................................................:
          :   optimization level            normal          :
          :   max. optcycles                   200          :
          :   ANC micro-cycles                  20          :
          :   degrees of freedom                42          :
          :.................................................:
          :   RF solver                   davidson          :
          :   write xtbopt.log                true          :
          :   linear?                        false          :
          :   energy convergence         0.5000000E-05 Eh   :
          :   grad. convergence          0.1000000E-02 Eh/α :
          :   maxmium RF displ.          1.0000000          :
          :   Hlow (freq-cutoff)         0.1000000E-01      :
          :   Hmax (freq-cutoff)         5.0000000          :
          :   S6 in model hess.         20.0000000          :
          ...................................................

generating ANC from model Hessian ...
Using Lindh-Hessian (1995)
 Shifting diagonal of input Hessian by    6.5271410943397390E-002
 Lowest  eigenvalues of input Hessian
    0.010000    0.023279    0.033089    0.060832    0.000000    0.000000
    0.000000    0.000000    0.000000    0.000000    0.071999    0.075924
    0.078241    0.086294    0.087059    0.092664    0.093399    0.094361
 Highest eigenvalues
    1.240174    1.339300    1.551907    2.000546    8.438988    8.450633


........................................................................
.............................. CYCLE    1 ..............................
........................................................................

 iter      E             dE          RMSdq      gap      omega  full diag
   1    -18.1074496 -0.181074E+02  0.124E-04    4.49       0.0  T
   2    -18.1074496  0.747846E-11  0.916E-05    4.49     272.9  T
   3    -18.1074496 -0.712745E-10  0.517E-05    4.49     483.8  T
     SCC iter.                  ...        0 min,  0.002 sec
     gradient                   ...        0 min,  0.001 sec
 * total energy  :   -17.7852940 Eh     change       -0.1136033E-08 Eh
   gradient norm :     0.5864927 Eh/α   predicted     0.0000000E+00 (-100.00%)
   displ. norm   :     0.1233592 α      lambda       -0.6839024E-01
   maximum displ.:     0.1156576 α      in ANC's #41, #27, #11, ...

........................................................................
.............................. CYCLE    2 ..............................
........................................................................

 iter      E             dE          RMSdq      gap      omega  full diag
   1    -18.0944480 -0.180944E+02  0.138E-01    3.98       0.0  T
   2    -18.0944670 -0.190177E-04  0.795E-02    3.98       1.0  T
   3    -18.0944629  0.413972E-05  0.238E-02    3.98       1.1  T
   4    -18.0944634 -0.462908E-06  0.167E-02    3.98       1.5  T
   5    -18.0944679 -0.452620E-05  0.111E-03    3.98      22.4  T
   6    -18.0944679 -0.104441E-08  0.552E-04    3.98      45.3  T
   7    -18.0944679 -0.194326E-09  0.611E-05    3.98     409.1  T
     SCC iter.                  ...        0 min,  0.003 sec
     gradient                   ...        0 min,  0.001 sec
 * total energy  :   -17.7989956 Eh     change       -0.1370159E-01 Eh
   gradient norm :     0.3529424 Eh/α   predicted    -0.3471550E-01 ( 153.37%)
   displ. norm   :     0.0453486 α      lambda       -0.1537600E-01
   maximum displ.:     0.0434260 α      in ANC's #41, #9, #2, ...

........................................................................
.............................. CYCLE    3 ..............................
........................................................................

 iter      E             dE          RMSdq      gap      omega  full diag
   1    -18.0975387 -0.180975E+02  0.694E-02    4.18       0.0  T
   2    -18.0975429 -0.416705E-05  0.394E-02    4.18       1.0  T
   3    -18.0975413  0.159864E-05  0.132E-02    4.18       1.9  T
   4    -18.0975422 -0.939424E-06  0.771E-03    4.18       3.2  T
   5    -18.0975431 -0.934100E-06  0.401E-04    4.18      62.3  T
   6    -18.0975431 -0.157950E-09  0.215E-04    4.18     116.5  T
     SCC iter.                  ...        0 min,  0.003 sec
     gradient                   ...        0 min,  0.001 sec
 * total energy  :   -17.8067315 Eh     change       -0.7735925E-02 Eh
   gradient norm :     0.0026926 Eh/α   predicted    -0.7703813E-02 (  -0.42%)
   displ. norm   :     0.0208489 α      lambda       -0.3229384E-04
   maximum displ.:     0.0135934 α      in ANC's #2, #9, #11, ...

........................................................................
.............................. CYCLE    4 ..............................
........................................................................

 iter      E             dE          RMSdq      gap      omega  full diag
   1    -18.0969391 -0.180969E+02  0.186E-02    4.18       0.0  T
   2    -18.0969392 -0.314944E-07  0.109E-02    4.18       2.3  T
   3    -18.0969389  0.223547E-06  0.385E-03    4.18       6.5  T
   4    -18.0969392 -0.241594E-06  0.524E-04    4.18      47.7  T
   5    -18.0969392 -0.290819E-08  0.150E-04    4.18     166.9  T
     SCC iter.                  ...        0 min,  0.003 sec
     gradient                   ...        0 min,  0.001 sec
 * total energy  :   -17.8067556 Eh     change       -0.2405874E-04 Eh
   gradient norm :     0.0016112 Eh/α   predicted    -0.1615494E-04 ( -32.85%)
   displ. norm   :     0.0540121 α      lambda       -0.4242647E-04
   maximum displ.:     0.0366515 α      in ANC's #9, #11, #8, ...

........................................................................
.............................. CYCLE    5 ..............................
........................................................................

 iter      E             dE          RMSdq      gap      omega  full diag
   1    -18.0948382 -0.180948E+02  0.550E-02    4.18       0.0  T
   2    -18.0948386 -0.365807E-06  0.320E-02    4.18       1.0  T
   3    -18.0948359  0.262384E-05  0.135E-02    4.18       1.8  T
   4    -18.0948388 -0.286237E-05  0.147E-03    4.18      17.0  T
   5    -18.0948388 -0.243115E-07  0.431E-04    4.18      58.1  T
   6    -18.0948388  0.197765E-09  0.249E-04    4.18     100.2  T
     SCC iter.                  ...        0 min,  0.003 sec
     gradient                   ...        0 min,  0.001 sec
 * total energy  :   -17.8067539 Eh     change        0.1738573E-05 Eh
   gradient norm :     0.0041293 Eh/α   predicted    -0.2124149E-04 (*******%)
   displ. norm   :     0.0271519 α      lambda       -0.3865504E-04
   maximum displ.:     0.0208353 α      in ANC's #1, #2, #4, ...

........................................................................
.............................. CYCLE    6 ..............................
........................................................................

 iter      E             dE          RMSdq      gap      omega  full diag
   1    -18.0954305 -0.180954E+02  0.309E-02    4.18       0.0  T
   2    -18.0954305 -0.389879E-07  0.183E-02    4.18       1.4  T
   3    -18.0954291  0.141735E-05  0.100E-02    4.18       2.5  T
   4    -18.0954306 -0.154581E-05  0.656E-04    4.18      38.1  T
   5    -18.0954306 -0.349449E-08  0.318E-04    4.18      78.6  T
   6    -18.0954306 -0.457646E-09  0.166E-04    4.18     150.8  T
     SCC iter.                  ...        0 min,  0.003 sec
     gradient                   ...        0 min,  0.001 sec
 * total energy  :   -17.8067706 Eh     change       -0.1675298E-04 Eh
   gradient norm :     0.0020599 Eh/α   predicted    -0.1934140E-04 (  15.45%)
   displ. norm   :     0.0490060 α      lambda       -0.5377393E-04
   maximum displ.:     0.0341072 α      in ANC's #1, #2, #11, ...

........................................................................
.............................. CYCLE    7 ..............................
........................................................................

 iter      E             dE          RMSdq      gap      omega  full diag
   1    -18.0971062 -0.180971E+02  0.583E-02    4.17       0.0  T
   2    -18.0971064 -0.218815E-06  0.343E-02    4.17       1.0  T
   3    -18.0971013  0.507591E-05  0.185E-02    4.17       1.4  T
   4    -18.0971068 -0.554767E-05  0.124E-03    4.17      20.2  T
   5    -18.0971069 -0.123907E-07  0.568E-04    4.17      44.0  T
   6    -18.0971069 -0.148773E-08  0.310E-04    4.17      80.6  T
     SCC iter.                  ...        0 min,  0.003 sec
     gradient                   ...        0 min,  0.001 sec
 * total energy  :   -17.8067457 Eh     change        0.2492362E-04 Eh
   gradient norm :     0.0059774 Eh/α   predicted    -0.2695099E-04 (-208.13%)
   displ. norm   :     0.0313191 α      lambda       -0.7686663E-04
   maximum displ.:     0.0216204 α      in ANC's #1, #2, #9, ...

........................................................................
.............................. CYCLE    8 ..............................
........................................................................

 iter      E             dE          RMSdq      gap      omega  full diag
   1    -18.0964315 -0.180964E+02  0.399E-02    4.18       0.0  T
   2    -18.0964316 -0.542430E-07  0.236E-02    4.18       1.1  T
   3    -18.0964296  0.203175E-05  0.116E-02    4.18       2.2  T
   4    -18.0964318 -0.220415E-05  0.692E-04    4.18      36.1  T
   5    -18.0964318 -0.338177E-08  0.354E-04    4.18      70.6  T
   6    -18.0964318 -0.531994E-09  0.193E-04    4.18     129.4  T
     SCC iter.                  ...        0 min,  0.003 sec
     gradient                   ...        0 min,  0.001 sec
 * total energy  :   -17.8067853 Eh     change       -0.3964420E-04 Eh
   gradient norm :     0.0006704 Eh/α   predicted    -0.3847156E-04 (  -2.96%)
   displ. norm   :     0.0167660 α      lambda       -0.3835959E-05
   maximum displ.:     0.0107764 α      in ANC's #2, #9, #6, ...

........................................................................
.............................. CYCLE    9 ..............................
........................................................................

 iter      E             dE          RMSdq      gap      omega  full diag
   1    -18.0962744 -0.180963E+02  0.640E-03    4.17       0.0  T
   2    -18.0962744 -0.332347E-08  0.380E-03    4.17       6.6  T
   3    -18.0962744  0.192565E-07  0.115E-03    4.17      21.7  T
   4    -18.0962744 -0.213362E-07  0.200E-04    4.17     125.2  T
   5    -18.0962744 -0.220332E-09  0.789E-05    4.17     316.7  T
     SCC iter.                  ...        0 min,  0.003 sec
     gradient                   ...        0 min,  0.001 sec
 * total energy  :   -17.8067903 Eh     change       -0.4967209E-05 Eh
   gradient norm :     0.0006815 Eh/α   predicted    -0.1919020E-05 ( -61.37%)
   displ. norm   :     0.0897676 α      lambda       -0.1947682E-04
   maximum displ.:     0.0577921 α      in ANC's #2, #6, #9, ...

   *** GEOMETRY OPTIMIZATION CONVERGED AFTER 9 ITERATIONS ***

------------------------------------------------------------------------
 total energy gain   :        -0.0214963 Eh      -13.4891 kcal/mol
 total RMSD          :         0.0346690 a0        0.0183 Å
 total power (kW/mol):        -6.2709408 (step)-1130.8731 (real)
------------------------------------------------------------------------

 ANCopt (total)                0 d,  0 h,  0 min,  0.050 sec
 optimizer setup                ...        0 min,  0.000 sec (  0.361%)
 model hessian                  ...        0 min,  0.007 sec ( 14.001%)
 ANC generation                 ...        0 min,  0.000 sec (  0.900%)
 coordinate transformation      ...        0 min,  0.000 sec (  0.099%)
 single point calculation       ...        0 min,  0.038 sec ( 75.616%)
 optimization log               ...        0 min,  0.001 sec (  2.856%)
 hessian update                 ...        0 min,  0.000 sec (  0.211%)
 rational function              ...        0 min,  0.001 sec (  2.816%)

================
 final structure:
================
16
 xtb: 6.6.1 (8d0f1dd)
C            0.22288094034920        1.58270826838980       -0.32135110546434
C           -1.04099990594924        1.25134200872983       -0.09506559948142
C           -1.60983682535991       -0.07052096070525        0.20839853853285
C           -0.14233080471223       -1.38390874474268        0.70641716964915
C            0.89877587196834       -1.23556209904061       -0.31887570460578
C            1.41947933368775        0.72776403062201       -0.30769116042320
H            0.44240540485424        2.62554950199667       -0.53676586146706
H           -1.78807760675132        2.03962765606419       -0.14546847687253
H           -2.24924512785595       -0.08451987432440        1.08155330823094
H           -2.06957579950300       -0.55808181711091       -0.64310326288015
H            0.14490138070771       -1.08406508824557        1.70415455427611
H           -0.69156648028921       -2.31788896147596        0.68592337285715
H            1.85150675069907       -1.69877191923058       -0.09065446721034
H            0.57536084194559       -1.41150418443436       -1.33486276302977
H            2.00312594114321        0.80237816785189        0.60221207066394
H            2.03333608506575        0.81574401565593       -1.19484061277555

 Bond Distances (Angstroems)
 ---------------------------
C1-C2=1.3260         C1-C6=1.4707         C1-H7=1.0873         C2-C1=1.3260         C2-C3=1.4707         C2-H8=1.0872         
C3-C2=1.4707         C3-H9=1.0823         C3-H10=1.0836        C4-C5=1.4687         C4-H11=1.0807        C4-H12=1.0837        
C5-C4=1.4687         C5-H13=1.0837        C5-H14=1.0806        C6-C1=1.4707         C6-H15=1.0836        C6-H16=1.0824        
H7-C1=1.0873         H8-C2=1.0872         H9-C3=1.0823         H10-C3=1.0836        H11-C4=1.0807        H12-C4=1.0837        
H13-C5=1.0837        H14-C5=1.0806        H15-C6=1.0836        H16-C6=1.0824        
 C  H  Rav=1.0835 sigma=0.0022  Rmin=1.0806  Rmax=1.0873    10
 C  C  Rav=1.4340 sigma=0.0624  Rmin=1.3260  Rmax=1.4707     4

 selected bond angles (degree)
 --------------------
C6-C1-C2=128.95                H7-C1-C2=117.77                H7-C1-C6=113.27                C3-C2-C1=128.94                
H8-C2-C1=117.76                H8-C2-C3=113.29                H9-C3-C2=113.99                H10-C3-C2=113.98               
H10-C3-H9=112.18               H11-C4-C5=115.35               H12-C4-C5=115.66               H12-C4-H11=113.03              
H13-C5-C4=115.66               H14-C5-C4=115.32               H14-C5-H13=113.05              H15-C6-C1=113.95               
H16-C6-C1=113.99               H16-C6-H15=112.16              

 selected dihedral angles (degree)
 ---------------------------------
C3-C2-C1-C6=358.68            C3-C2-C1-H7=179.61            H8-C2-C1-C6=179.55            H8-C2-C1-H7=  0.48            
H9-C3-C2-C1=129.13            H9-C3-C2-H8=308.29            H10-C3-C2-C1=259.68           H10-C3-C2-H8= 78.84           
H13-C5-C4-H11= 52.59          H13-C5-C4-H12=277.52          H14-C5-C4-H11=187.65          H14-C5-C4-H12= 52.58          
H15-C6-C1-C2=259.29           H15-C6-C1-H7= 78.40           H16-C6-C1-C2=128.79           H16-C6-C1-H7=307.90           

 CMA Distance (Angstroems)
 ---------------------------
R(CMA):  2.3506
           -------------------------------------------------
          |                Final Singlepoint                |
           -------------------------------------------------

          ...................................................
          :                      SETUP                      :
          :.................................................:
          :  # basis functions                  34          :
          :  # atomic orbitals                  34          :
          :  # shells                           22          :
          :  # electrons                        34          :
          :  max. iterations                   250          :
          :  Hamiltonian                  GFN2-xTB          :
          :  restarted?                      false          :
          :  GBSA solvation                  false          :
          :  PC potential                    false          :
          :  electronic temp.          300.0000000     K    :
          :  accuracy                    1.0000000          :
          :  -> integral cutoff          0.2500000E+02      :
          :  -> integral neglect         0.1000000E-07      :
          :  -> SCF convergence          0.1000000E-05 Eh   :
          :  -> wf. convergence          0.1000000E-03 e    :
          :  Broyden damping             0.4000000          :
          ...................................................

 iter      E             dE          RMSdq      gap      omega  full diag
   1    -18.0962744 -0.180963E+02  0.372E-05    4.17       0.0  T
   2    -18.0962744 -0.244782E-11  0.320E-05    4.17     782.1  T
   3    -18.0962744 -0.122000E-10  0.866E-06    4.17    2885.6  T

   *** convergence criteria satisfied after 3 iterations ***

         #    Occupation            Energy/Eh            Energy/eV
      -------------------------------------------------------------
         1        2.0000           -0.6138747             -16.7044
       ...           ...                  ...                  ...
        11        2.0000           -0.4677271             -12.7275
        12        2.0000           -0.4605898             -12.5333
        13        2.0000           -0.4423310             -12.0364
        14        2.0000           -0.4383038             -11.9269
        15        2.0000           -0.3951596             -10.7528
        16        2.0000           -0.3851045             -10.4792
        17        2.0000           -0.3665905              -9.9754 (HOMO)
        18                         -0.2131740              -5.8008 (LUMO)
        19                         -0.1803172              -4.9067
        20                         -0.1685109              -4.5854
        21                          0.1152697               3.1366
        22                          0.1332654               3.6263
       ...                                ...                  ...
        34                          0.6479126              17.6306
      -------------------------------------------------------------
                  HL-Gap            0.1534164 Eh            4.1747 eV
             Fermi-level           -0.2898823 Eh           -7.8881 eV

 SCC (total)                   0 d,  0 h,  0 min,  0.003 sec
 SCC setup                      ...        0 min,  0.000 sec (  5.039%)
 Dispersion                     ...        0 min,  0.000 sec (  1.549%)
 classical contributions        ...        0 min,  0.000 sec (  0.288%)
 integral evaluation            ...        0 min,  0.000 sec (  8.609%)
 iterations                     ...        0 min,  0.002 sec ( 51.471%)
 molecular gradient             ...        0 min,  0.001 sec ( 24.953%)
 printout                       ...        0 min,  0.000 sec (  7.580%)

         :::::::::::::::::::::::::::::::::::::::::::::::::::::
         ::                     SUMMARY                     ::
         :::::::::::::::::::::::::::::::::::::::::::::::::::::
         :: total energy             -17.806790294505 Eh    ::
         :: gradient norm              0.000681318521 Eh/a0 ::
         :: HOMO-LUMO gap              4.174673563883 eV    ::
         ::.................................................::
         :: SCC energy               -18.096274423208 Eh    ::
         :: -> isotropic ES            0.002605086776 Eh    ::
         :: -> anisotropic ES          0.007520117726 Eh    ::
         :: -> anisotropic XC          0.013422075115 Eh    ::
         :: -> dispersion             -0.010680006123 Eh    ::
         :: repulsion energy           0.287666755582 Eh    ::
         :: add. restraining           0.001786596644 Eh    ::
         :: total charge               0.000000000000 e     ::
         :::::::::::::::::::::::::::::::::::::::::::::::::::::

           -------------------------------------------------
          |                Property Printout                |
           -------------------------------------------------

    * Orbital Energies and Occupations

         #    Occupation            Energy/Eh            Energy/eV
      -------------------------------------------------------------
         1        2.0000           -0.6138747             -16.7044
       ...           ...                  ...                  ...
         5        2.0000           -0.5480973             -14.9145
         6        2.0000           -0.5185033             -14.1092
         7        2.0000           -0.5062983             -13.7771
         8        2.0000           -0.4912520             -13.3676
         9        2.0000           -0.4745425             -12.9130
        10        2.0000           -0.4733257             -12.8798
        11        2.0000           -0.4677271             -12.7275
        12        2.0000           -0.4605898             -12.5333
        13        2.0000           -0.4423310             -12.0364
        14        2.0000           -0.4383038             -11.9269
        15        2.0000           -0.3951596             -10.7528
        16        2.0000           -0.3851045             -10.4792
        17        2.0000           -0.3665905              -9.9754 (HOMO)
        18                         -0.2131740              -5.8008 (LUMO)
        19                         -0.1803172              -4.9067
        20                         -0.1685109              -4.5854
        21                          0.1152697               3.1366
        22                          0.1332654               3.6263
        23                          0.1551027               4.2206
        24                          0.1792648               4.8780
        25                          0.1982117               5.3936
        26                          0.2108663               5.7380
        27                          0.2188490               5.9552
        28                          0.2433156               6.6210
       ...                                ...                  ...
        34                          0.6479126              17.6306
      -------------------------------------------------------------
                  HL-Gap            0.1534164 Eh            4.1747 eV
             Fermi-level           -0.2898823 Eh           -7.8881 eV

     #   Z          covCN         q      C6AA      α(0)
     1   6 C        2.887    -0.035    28.872     8.809
     2   6 C        2.887    -0.035    28.872     8.809
     3   6 C        3.257    -0.072    28.580     8.643
     4   6 C        3.255    -0.064    28.435     8.624
     5   6 C        3.255    -0.064    28.430     8.623
     6   6 C        3.258    -0.072    28.575     8.641
     7   1 H        0.925     0.027     2.631     2.536
     8   1 H        0.925     0.027     2.631     2.537
     9   1 H        0.925     0.036     2.499     2.472
    10   1 H        0.925     0.040     2.447     2.446
    11   1 H        0.926     0.035     2.510     2.477
    12   1 H        0.925     0.032     2.554     2.499
    13   1 H        0.925     0.032     2.553     2.499
    14   1 H        0.926     0.036     2.509     2.477
    15   1 H        0.925     0.040     2.448     2.447
    16   1 H        0.925     0.036     2.498     2.471

 Mol. C6AA /au·bohr⁶  :       2302.670557
 Mol. C8AA /au·bohr⁸  :      51920.709781
 Mol. α(0) /au        :         77.011859


Wiberg/Mayer (AO) data.
largest (>0.10) Wiberg bond orders for each atom

 ---------------------------------------------------------------------------
     #   Z sym  total        # sym  WBO       # sym  WBO       # sym  WBO
 ---------------------------------------------------------------------------
     1   6 C    3.992 --     2 C    1.905     6 C    1.062     7 H    0.951
     2   6 C    3.992 --     1 C    1.905     3 C    1.062     8 H    0.951
     3   6 C    3.990 --     2 C    1.062     9 H    0.973    10 H    0.967
                             4 C    0.905
     4   6 C    3.992 --     5 C    1.088    11 H    0.983    12 H    0.970
                             3 C    0.905
     5   6 C    3.992 --     4 C    1.088    14 H    0.983    13 H    0.970
                             6 C    0.905
     6   6 C    3.990 --     1 C    1.062    16 H    0.973    15 H    0.967
                             5 C    0.905
     7   1 H    0.999 --     1 C    0.951
     8   1 H    0.999 --     2 C    0.951
     9   1 H    0.999 --     3 C    0.973
    10   1 H    0.998 --     3 C    0.967
    11   1 H    0.999 --     4 C    0.983
    12   1 H    0.999 --     4 C    0.970
    13   1 H    0.999 --     5 C    0.970
    14   1 H    0.999 --     5 C    0.983
    15   1 H    0.998 --     6 C    0.967
    16   1 H    0.999 --     6 C    0.973
 ---------------------------------------------------------------------------

Topologies differ in total number of bonds
Writing topology from bond orders to xtbtopo.mol

molecular dipole:
                 x           y           z       tot (Debye)
 q only:        0.019      -0.065       0.009
   full:        0.019      -0.063       0.009       0.170
molecular quadrupole (traceless):
                xx          xy          yy          xz          yz          zz
 q only:        0.620       0.197      -0.113      -0.184      -0.103      -0.507
  q+dip:        1.405       0.354       0.229      -0.036      -0.268      -1.635
   full:        0.918       0.242       0.129      -0.005      -0.163      -1.047

           -------------------------------------------------
          |                Geometry Summary                 |
           -------------------------------------------------

      molecular mass/u    :       82.1438229
   center of mass at/Å    :       -0.0337568       0.1167803      -0.0171678
  moments of inertia/u·Å² :        0.1177031E+03   0.1367463E+03   0.2317111E+03
rotational constants/cm⁻¹ :        0.1432216E+00   0.1232767E+00   0.7275281E-01

 * 12 selected distances

     #   Z          #   Z                                           value/Å
     1   6 C        2   6 C                                       1.3260482
     4   6 C        5   6 C                                       1.4687191 (max)
     1   6 C        7   1 H                                       1.0872500
     2   6 C        8   1 H                                       1.0872258
     3   6 C        9   1 H                                       1.0823301
     3   6 C       10   1 H                                       1.0835733
     4   6 C       11   1 H                                       1.0806890
     4   6 C       12   1 H                                       1.0836970
     5   6 C       13   1 H                                       1.0836718
     5   6 C       14   1 H                                       1.0806400 (min)
     6   6 C       15   1 H                                       1.0835750
     6   6 C       16   1 H                                       1.0824024

 * 2 distinct bonds (by element types)

   Z      Z             #   av. dist./Å        max./Å        min./Å
   1 H    6 C          10     1.0835054     1.0872500     1.0806400
   6 C    6 C           2     1.3973836     1.4687191     1.3260482


optimized geometry written to: xtbopt.xyz


           -------------------------------------------------
          | TOTAL ENERGY              -17.806790294505 Eh   |
          | GRADIENT NORM               0.000681318521 Eh/α |
          | HOMO-LUMO GAP               4.174673563883 eV   |
           -------------------------------------------------

------------------------------------------------------------------------
 * finished run on 2025/05/23 at 11:05:32.981     
------------------------------------------------------------------------
 total:
 * wall-time:     0 d,  0 h,  0 min,  0.074 sec
 *  cpu-time:     0 d,  0 h,  0 min,  1.020 sec
 * ratio c/w:    13.755 speedup
 SCF:
 * wall-time:     0 d,  0 h,  0 min,  0.009 sec
 *  cpu-time:     0 d,  0 h,  0 min,  0.143 sec
 * ratio c/w:    15.243 speedup
 ANC optimizer:
 * wall-time:     0 d,  0 h,  0 min,  0.055 sec
 *  cpu-time:     0 d,  0 h,  0 min,  0.775 sec
 * ratio c/w:    14.170 speedup

