      -----------------------------------------------------------      
     |                   =====================                   |     
     |                           x T B                           |     
     |                   =====================                   |     
     |                         S. Grimme                         |     
     |          Mulliken Center for Theoretical Chemistry        |     
     |                    University of Bonn                     |     
      -----------------------------------------------------------      

   * xtb version 6.6.1 (8d0f1dd) compiled by 'conda@1efc2f54142f' on 2023-08-01

   xtb is free software: you can redistribute it and/or modify it under
   the terms of the GNU Lesser General Public License as published by
   the Free Software Foundation, either version 3 of the License, or
   (at your option) any later version.
   
   xtb is distributed in the hope that it will be useful,
   but WITHOUT ANY WARRANTY; without even the implied warranty of
   MERCHANTABILITY or FITNESS FOR A PARTICULAR PURPOSE.  See the
   GNU Lesser General Public License for more details.
   
   Cite this work as:
   * C. Bannwarth, E. Caldeweyher, S. Ehlert, A. Hansen, P. Pracht,
     J. Seibert, S. Spicher, S. Grimme, WIREs Comput. Mol. Sci., 2020, 11,
     e01493. DOI: 10.1002/wcms.1493
   
   for GFN2-xTB:
   * C. Bannwarth, S. Ehlert and S. Grimme., J. Chem. Theory Comput., 2019,
     15, 1652-1671. DOI: 10.1021/acs.jctc.8b01176
   for GFN1-xTB:
   * S. Grimme, C. Bannwarth, P. Shushkov, J. Chem. Theory Comput., 2017,
     13, 1989-2009. DOI: 10.1021/acs.jctc.7b00118
   for GFN0-xTB:
   * P. Pracht, E. Caldeweyher, S. Ehlert, S. Grimme, ChemRxiv, 2019, preprint.
     DOI: 10.26434/chemrxiv.8326202.v1
   for GFN-FF:
   * S. Spicher and S. Grimme, Angew. Chem. Int. Ed., 2020, 59, 15665-15673.
     DOI: 10.1002/anie.202004239
   
   for ALPB and GBSA implicit solvation:
   * S. Ehlert, M. Stahn, S. Spicher, S. Grimme, J. Chem. Theory Comput.,
     2021, 17, 4250-4261. DOI: 10.1021/acs.jctc.1c00471
   
   for DFT-D4:
   * E. Caldeweyher, C. Bannwarth and S. Grimme, J. Chem. Phys., 2017,
     147, 034112. DOI: 10.1063/1.4993215
   * E. Caldeweyher, S. Ehlert, A. Hansen, H. Neugebauer, S. Spicher,
     C. Bannwarth and S. Grimme, J. Chem. Phys., 2019, 150, 154122.
     DOI: 10.1063/1.5090222
   * E. Caldeweyher, J.-M. Mewes, S. Ehlert and S. Grimme, Phys. Chem. Chem. Phys.
     2020, 22, 8499-8512. DOI: 10.1039/D0CP00502A
   
   for sTDA-xTB:
   * S. Grimme and C. Bannwarth, J. Chem. Phys., 2016, 145, 054103.
     DOI: 10.1063/1.4959605
   
   in the mass-spec context:
   * V. Asgeirsson, C. Bauer and S. Grimme, Chem. Sci., 2017, 8, 4879.
     DOI: 10.1039/c7sc00601b
   * J. Koopman and S. Grimme, ACS Omega 2019, 4, 12, 15120-15133.
     DOI: 10.1021/acsomega.9b02011
   
   for metadynamics refer to:
   * S. Grimme, J. Chem. Theory Comput., 2019, 155, 2847-2862
     DOI: 10.1021/acs.jctc.9b00143
   
   for SPH calculations refer to:
   * S. Spicher and S. Grimme, J. Chem. Theory Comput., 2021, 17, 1701-1714
     DOI: 10.1021/acs.jctc.0c01306
   
   with help from (in alphabetical order)
   P. Atkinson, C. Bannwarth, F. Bohle, G. Brandenburg, E. Caldeweyher
   M. Checinski, S. Dohm, S. Ehlert, S. Ehrlich, I. Gerasimov, C. Hölzer
   A. Katbashev, J. Koopman, C. Lavigne, S. Lehtola, F. März, M. Müller,
   F. Musil, H. Neugebauer, J. Pisarek, C. Plett, P. Pracht, F. Pultar,
   J. Seibert, P. Shushkov, S. Spicher, M. Stahn, M. Steiner, T. Strunk,
   J. Stückrath, T. Rose, and J. Unsleber
   
 * started run on 2025/05/23 at 11:05:31.505     

           -------------------------------------------------
          |                Calculation Setup                |
           -------------------------------------------------

          program call               : /gpfs/fs1/home/copan/code/autode-practice/.pixi/envs/default/bin/xtb path_opt3_xtb.xyz --chrg 0 --uhf 0 --opt --input xcontrol_path_opt3_xtb
          hostname                   : beboplogin4.lcrc.anl.gov
          coordinate file            : path_opt3_xtb.xyz
          omp threads                :                     8

   ID    Z sym.   atoms
    1    6 C      1-6
    2    1 H      7-16
constraining bond 3 4 to    1.8481000 Å, actual value:    1.7980072 Å
constraining bond 5 6 to    1.8479000 Å, actual value:    1.7978083 Å

           -------------------------------------------------
          |                 G F N 2 - x T B                 |
           -------------------------------------------------

        Reference                      10.1021/acs.jctc.8b01176
      * Hamiltonian:
        H0-scaling (s, p, d)           1.850000    2.230000    2.230000
        zeta-weighting                 0.500000
      * Dispersion:
        s8                             2.700000
        a1                             0.520000
        a2                             5.000000
        s9                             5.000000
      * Repulsion:
        kExp                           1.500000    1.000000
        rExp                           1.000000
      * Coulomb:
        alpha                          2.000000
        third order                    shell-resolved
        anisotropic                    true
        a3                             3.000000
        a5                             4.000000
        cn-shift                       1.200000
        cn-exp                         4.000000
        max-rad                        5.000000


          ...................................................
          :                      SETUP                      :
          :.................................................:
          :  # basis functions                  34          :
          :  # atomic orbitals                  34          :
          :  # shells                           22          :
          :  # electrons                        34          :
          :  max. iterations                   250          :
          :  Hamiltonian                  GFN2-xTB          :
          :  restarted?                      false          :
          :  GBSA solvation                  false          :
          :  PC potential                    false          :
          :  electronic temp.          300.0000000     K    :
          :  accuracy                    1.0000000          :
          :  -> integral cutoff          0.2500000E+02      :
          :  -> integral neglect         0.1000000E-07      :
          :  -> SCF convergence          0.1000000E-05 Eh   :
          :  -> wf. convergence          0.1000000E-03 e    :
          :  Broyden damping             0.4000000          :
          ...................................................

 iter      E             dE          RMSdq      gap      omega  full diag
   1    -18.1358823 -0.181359E+02  0.322E+00    5.24       0.0  T
   2    -18.1645305 -0.286482E-01  0.182E+00    5.17       1.0  T
   3    -18.1649441 -0.413620E-03  0.675E-01    5.12       1.0  T
   4    -18.1649385  0.557629E-05  0.191E-01    5.12       1.0  T
   5    -18.1654058 -0.467322E-03  0.548E-02    5.12       1.0  T
   6    -18.1654078 -0.199745E-05  0.168E-02    5.12       1.5  T
   7    -18.1654080 -0.190431E-06  0.214E-03    5.12      11.7  T
   8    -18.1654080  0.955043E-08  0.115E-03    5.12      21.8  T
   9    -18.1654080 -0.154528E-07  0.224E-04    5.12     111.5  T
  10    -18.1654080 -0.107605E-09  0.934E-05    5.12     267.5  T

   *** convergence criteria satisfied after 10 iterations ***

         #    Occupation            Energy/Eh            Energy/eV
      -------------------------------------------------------------
         1        2.0000           -0.6172954             -16.7975
       ...           ...                  ...                  ...
        11        2.0000           -0.4685769             -12.7506
        12        2.0000           -0.4635914             -12.6150
        13        2.0000           -0.4446781             -12.1003
        14        2.0000           -0.4375326             -11.9059
        15        2.0000           -0.4084523             -11.1146
        16        2.0000           -0.3964262             -10.7873
        17        2.0000           -0.3791376             -10.3169 (HOMO)
        18                         -0.1908002              -5.1919 (LUMO)
        19                         -0.1068785              -2.9083
        20                         -0.0841920              -2.2910
        21                          0.1171501               3.1878
        22                          0.1323455               3.6013
       ...                                ...                  ...
        34                          0.6431980              17.5023
      -------------------------------------------------------------
                  HL-Gap            0.1883374 Eh            5.1249 eV
             Fermi-level           -0.2849689 Eh           -7.7544 eV

 SCC (total)                   0 d,  0 h,  0 min,  0.009 sec
 SCC setup                      ...        0 min,  0.000 sec (  2.774%)
 Dispersion                     ...        0 min,  0.000 sec (  1.345%)
 classical contributions        ...        0 min,  0.000 sec (  1.927%)
 integral evaluation            ...        0 min,  0.000 sec (  4.942%)
 iterations                     ...        0 min,  0.006 sec ( 73.630%)
 molecular gradient             ...        0 min,  0.001 sec ( 11.648%)
 printout                       ...        0 min,  0.000 sec (  3.495%)

         :::::::::::::::::::::::::::::::::::::::::::::::::::::
         ::                     SUMMARY                     ::
         :::::::::::::::::::::::::::::::::::::::::::::::::::::
         :: total energy             -17.846383697688 Eh    ::
         :: gradient norm              0.601786310257 Eh/a0 ::
         :: HOMO-LUMO gap              5.124920539596 eV    ::
         ::.................................................::
         :: SCC energy               -18.165408021848 Eh    ::
         :: -> isotropic ES            0.002525488003 Eh    ::
         :: -> anisotropic ES          0.006265139596 Eh    ::
         :: -> anisotropic XC          0.012654385350 Eh    ::
         :: -> dispersion             -0.009847541904 Eh    ::
         :: repulsion energy           0.283157438879 Eh    ::
         :: add. restraining           0.035842553396 Eh    ::
         :: total charge               0.000000000000 e     ::
         :::::::::::::::::::::::::::::::::::::::::::::::::::::

      ----------------------------------------------------------- 
     |                   =====================                   |
     |                        A N C O P T                        |
     |                   =====================                   |
     |               Approximate Normal Coordinate               |
     |                Rational Function Optimizer                |
      ----------------------------------------------------------- 

          ...................................................
          :                      SETUP                      :
          :.................................................:
          :   optimization level            normal          :
          :   max. optcycles                   200          :
          :   ANC micro-cycles                  20          :
          :   degrees of freedom                42          :
          :.................................................:
          :   RF solver                   davidson          :
          :   write xtbopt.log                true          :
          :   linear?                        false          :
          :   energy convergence         0.5000000E-05 Eh   :
          :   grad. convergence          0.1000000E-02 Eh/α :
          :   maxmium RF displ.          1.0000000          :
          :   Hlow (freq-cutoff)         0.1000000E-01      :
          :   Hmax (freq-cutoff)         5.0000000          :
          :   S6 in model hess.         20.0000000          :
          ...................................................

generating ANC from model Hessian ...
Using Lindh-Hessian (1995)
 Shifting diagonal of input Hessian by    6.4805482789741409E-002
 Lowest  eigenvalues of input Hessian
    0.010000    0.022726    0.038115    0.062340    0.000000    0.000000
    0.000000    0.000000    0.000000    0.000000    0.077606    0.078885
    0.081737    0.089063    0.092996    0.095646    0.100455    0.102328
 Highest eigenvalues
    1.221083    1.273623    1.539148    1.988587    8.643464    8.655207


........................................................................
.............................. CYCLE    1 ..............................
........................................................................

 iter      E             dE          RMSdq      gap      omega  full diag
   1    -18.1654080 -0.181654E+02  0.126E-05    5.12       0.0  T
   2    -18.1654080 -0.118661E-11  0.703E-06    5.12    3555.9  T
   3    -18.1654080 -0.483169E-12  0.329E-06    5.12    7602.0  T
     SCC iter.                  ...        0 min,  0.002 sec
     gradient                   ...        0 min,  0.001 sec
 * total energy  :   -17.8463837 Eh     change       -0.6597389E-11 Eh
   gradient norm :     0.6017863 Eh/α   predicted     0.0000000E+00 (-100.00%)
   displ. norm   :     0.1283645 α      lambda       -0.7207402E-01
   maximum displ.:     0.1185786 α      in ANC's #41, #27, #11, ...

........................................................................
.............................. CYCLE    2 ..............................
........................................................................

 iter      E             dE          RMSdq      gap      omega  full diag
   1    -18.1526305 -0.181526E+02  0.121E-01    5.03       0.0  T
   2    -18.1526427 -0.121446E-04  0.735E-02    5.02       1.0  T
   3    -18.1526427 -0.622667E-07  0.129E-02    5.02       1.9  T
   4    -18.1526429 -0.199820E-06  0.213E-03    5.02      11.8  T
   5    -18.1526429 -0.235082E-07  0.124E-03    5.02      20.2  T
   6    -18.1526429 -0.897910E-08  0.472E-04    5.02      52.9  T
   7    -18.1526429 -0.185018E-09  0.813E-05    5.02     307.5  T
     SCC iter.                  ...        0 min,  0.004 sec
     gradient                   ...        0 min,  0.001 sec
 * total energy  :   -17.8600713 Eh     change       -0.1368761E-01 Eh
   gradient norm :     0.3747950 Eh/α   predicted    -0.3663081E-01 ( 167.62%)
   displ. norm   :     0.0470508 α      lambda       -0.1709927E-01
   maximum displ.:     0.0455082 α      in ANC's #41, #2, #9, ...

........................................................................
.............................. CYCLE    3 ..............................
........................................................................

 iter      E             dE          RMSdq      gap      omega  full diag
   1    -18.1553970 -0.181554E+02  0.655E-02    5.07       0.0  T
   2    -18.1554004 -0.342870E-05  0.383E-02    5.07       1.0  T
   3    -18.1554004 -0.722072E-08  0.745E-03    5.07       3.4  T
   4    -18.1554005 -0.503922E-07  0.650E-04    5.07      38.5  T
   5    -18.1554005 -0.205569E-08  0.367E-04    5.07      68.2  T
     SCC iter.                  ...        0 min,  0.003 sec
     gradient                   ...        0 min,  0.001 sec
 * total energy  :   -17.8686850 Eh     change       -0.8613667E-02 Eh
   gradient norm :     0.0032875 Eh/α   predicted    -0.8568561E-02 (  -0.52%)
   displ. norm   :     0.0162320 α      lambda       -0.3054304E-04
   maximum displ.:     0.0068653 α      in ANC's #9, #11, #18, ...

........................................................................
.............................. CYCLE    4 ..............................
........................................................................

 iter      E             dE          RMSdq      gap      omega  full diag
   1    -18.1545805 -0.181546E+02  0.170E-02    5.07       0.0  T
   2    -18.1545806 -0.576165E-07  0.981E-03    5.07       2.5  T
   3    -18.1545806  0.804490E-08  0.126E-03    5.07      19.8  T
   4    -18.1545806 -0.120402E-07  0.437E-04    5.07      57.2  T
   5    -18.1545806 -0.223186E-08  0.131E-04    5.07     190.6  T
     SCC iter.                  ...        0 min,  0.003 sec
     gradient                   ...        0 min,  0.001 sec
 * total energy  :   -17.8687074 Eh     change       -0.2242356E-04 Eh
   gradient norm :     0.0012803 Eh/α   predicted    -0.1527677E-04 ( -31.87%)
   displ. norm   :     0.0286370 α      lambda       -0.1879806E-04
   maximum displ.:     0.0172506 α      in ANC's #9, #11, #18, ...

........................................................................
.............................. CYCLE    5 ..............................
........................................................................

 iter      E             dE          RMSdq      gap      omega  full diag
   1    -18.1532635 -0.181533E+02  0.287E-02    5.08       0.0  T
   2    -18.1532637 -0.203864E-06  0.165E-02    5.08       1.5  T
   3    -18.1532636  0.428006E-07  0.261E-03    5.08       9.6  T
   4    -18.1532637 -0.560090E-07  0.773E-04    5.08      32.3  T
   5    -18.1532637 -0.805967E-08  0.207E-04    5.08     120.7  T
     SCC iter.                  ...        0 min,  0.003 sec
     gradient                   ...        0 min,  0.001 sec
 * total energy  :   -17.8687159 Eh     change       -0.8506922E-05 Eh
   gradient norm :     0.0012301 Eh/α   predicted    -0.9400892E-05 (  10.51%)
   displ. norm   :     0.0170717 α      lambda       -0.5246249E-05
   maximum displ.:     0.0117022 α      in ANC's #1, #2, #15, ...

........................................................................
.............................. CYCLE    6 ..............................
........................................................................

 iter      E             dE          RMSdq      gap      omega  full diag
   1    -18.1538107 -0.181538E+02  0.191E-02    5.08       0.0  T
   2    -18.1538107 -0.382969E-07  0.113E-02    5.08       2.2  T
   3    -18.1538106  0.859971E-07  0.261E-03    5.08       9.6  T
   4    -18.1538107 -0.956542E-07  0.497E-04    5.08      50.3  T
   5    -18.1538107 -0.263477E-08  0.185E-04    5.08     134.9  T
     SCC iter.                  ...        0 min,  0.003 sec
     gradient                   ...        0 min,  0.001 sec
 * total energy  :   -17.8687138 Eh     change        0.2061587E-05 Eh
   gradient norm :     0.0019111 Eh/α   predicted    -0.2624596E-05 (-227.31%)
   displ. norm   :     0.0266445 α      lambda       -0.1339895E-04
   maximum displ.:     0.0222970 α      in ANC's #1, #15, #2, ...

........................................................................
.............................. CYCLE    7 ..............................
........................................................................

 iter      E             dE          RMSdq      gap      omega  full diag
   1    -18.1548673 -0.181549E+02  0.303E-02    5.08       0.0  T
   2    -18.1548674 -0.129595E-06  0.179E-02    5.08       1.4  T
   3    -18.1548672  0.155312E-06  0.364E-03    5.08       6.9  T
   4    -18.1548674 -0.167915E-06  0.102E-03    5.08      24.5  T
   5    -18.1548674 -0.127433E-07  0.271E-04    5.08      92.1  T
   6    -18.1548674 -0.323055E-09  0.151E-04    5.08     166.0  T
     SCC iter.                  ...        0 min,  0.003 sec
     gradient                   ...        0 min,  0.001 sec
 * total energy  :   -17.8687083 Eh     change        0.5549166E-05 Eh
   gradient norm :     0.0031237 Eh/α   predicted    -0.6700342E-05 (-220.75%)
   displ. norm   :     0.0190739 α      lambda       -0.2526909E-04
   maximum displ.:     0.0159032 α      in ANC's #2, #1, #9, ...

........................................................................
.............................. CYCLE    8 ..............................
........................................................................

 iter      E             dE          RMSdq      gap      omega  full diag
   1    -18.1545719 -0.181546E+02  0.271E-02    5.08       0.0  T
   2    -18.1545719 -0.331066E-07  0.160E-02    5.08       1.6  T
   3    -18.1545718  0.950842E-07  0.269E-03    5.08       9.3  T
   4    -18.1545720 -0.109911E-06  0.348E-04    5.08      71.9  T
   5    -18.1545720 -0.728324E-09  0.197E-04    5.08     126.6  T
     SCC iter.                  ...        0 min,  0.003 sec
     gradient                   ...        0 min,  0.001 sec
 * total energy  :   -17.8687157 Eh     change       -0.7434706E-05 Eh
   gradient norm :     0.0015304 Eh/α   predicted    -0.1263853E-04 (  69.99%)
   displ. norm   :     0.0252838 α      lambda       -0.1539321E-04
   maximum displ.:     0.0180146 α      in ANC's #2, #11, #18, ...

........................................................................
.............................. CYCLE    9 ..............................
........................................................................

 iter      E             dE          RMSdq      gap      omega  full diag
   1    -18.1533710 -0.181534E+02  0.272E-02    5.08       0.0  T
   2    -18.1533711 -0.109328E-06  0.158E-02    5.08       1.6  T
   3    -18.1533711  0.225171E-09  0.125E-03    5.08      20.1  T
   4    -18.1533711 -0.388762E-08  0.563E-04    5.08      44.4  T
   5    -18.1533711 -0.366749E-08  0.192E-04    5.08     130.0  T
     SCC iter.                  ...        0 min,  0.003 sec
     gradient                   ...        0 min,  0.001 sec
 * total energy  :   -17.8687192 Eh     change       -0.3471656E-05 Eh
   gradient norm :     0.0014812 Eh/α   predicted    -0.7698222E-05 ( 121.74%)
   displ. norm   :     0.0096083 α      lambda       -0.5487720E-05
   maximum displ.:     0.0047337 α      in ANC's #15, #18, #11, ...

........................................................................
.............................. CYCLE   10 ..............................
........................................................................

 iter      E             dE          RMSdq      gap      omega  full diag
   1    -18.1540302 -0.181540E+02  0.119E-02    5.08       0.0  T
   2    -18.1540302 -0.320159E-07  0.692E-03    5.08       3.6  T
   3    -18.1540302  0.273105E-08  0.808E-04    5.08      30.9  T
   4    -18.1540302 -0.388939E-08  0.283E-04    5.08      88.2  T
     SCC iter.                  ...        0 min,  0.002 sec
     gradient                   ...        0 min,  0.001 sec
 * total energy  :   -17.8687237 Eh     change       -0.4548569E-05 Eh
   gradient norm :     0.0003373 Eh/α   predicted    -0.2744780E-05 ( -39.66%)
   displ. norm   :     0.0068692 α      lambda       -0.8374604E-06
   maximum displ.:     0.0032693 α      in ANC's #2, #9, #6, ...

   *** GEOMETRY OPTIMIZATION CONVERGED AFTER 10 ITERATIONS ***

------------------------------------------------------------------------
 total energy gain   :        -0.0223401 Eh      -14.0186 kcal/mol
 total RMSD          :         0.0305522 a0        0.0162 Å
 total power (kW/mol):        -5.8653796 (step)-1107.4715 (real)
------------------------------------------------------------------------

 ANCopt (total)                0 d,  0 h,  0 min,  0.053 sec
 optimizer setup                ...        0 min,  0.000 sec (  0.326%)
 model hessian                  ...        0 min,  0.007 sec ( 13.807%)
 ANC generation                 ...        0 min,  0.000 sec (  0.850%)
 coordinate transformation      ...        0 min,  0.000 sec (  0.104%)
 single point calculation       ...        0 min,  0.040 sec ( 76.087%)
 optimization log               ...        0 min,  0.002 sec (  3.002%)
 hessian update                 ...        0 min,  0.000 sec (  0.197%)
 rational function              ...        0 min,  0.002 sec (  2.895%)

================
 final structure:
================
16
 xtb: 6.6.1 (8d0f1dd)
C            0.23429317629440        1.53918674689564       -0.31661244262893
C           -1.02751253569216        1.20881378210567       -0.08772338510523
C           -1.55784342391642       -0.13772405003501        0.22231563314825
C           -0.19023347823356       -1.27287046532908        0.68799443263476
C            0.87956992690031       -1.11529064871481       -0.33493971537273
C            1.41183175767809        0.64266194940683       -0.29823399167938
H            0.47034207205555        2.57605607809646       -0.53247021512480
H           -1.78592059356942        1.98328318297770       -0.13683907206101
H           -2.23482527968668       -0.13264539746070        1.07047669271383
H           -2.03053621774116       -0.60381596860173       -0.63797716493248
H            0.11674444622390       -0.96520292884520        1.68046476831047
H           -0.63909974685209       -2.26121606131878        0.70131136279680
H            1.77827908165286       -1.68416590127065       -0.11756018151208
H            0.53498751850818       -1.29301302556793       -1.34665078819493
H            1.99276699671342        0.74268904399562        0.61461998450439
H            2.04725629966477        0.77352366366598       -1.16820591749693

 Bond Distances (Angstroems)
 ---------------------------
C1-C2=1.3243         C1-C6=1.4801         C1-H7=1.0851         C2-C1=1.3243         C2-C3=1.4800         C2-H8=1.0851         
C3-C2=1.4800         C3-C4=1.8373         C3-H9=1.0852         C3-H10=1.0866        C4-C3=1.8373         C4-C5=1.4885         
C4-H11=1.0835        C4-H12=1.0856        C5-C4=1.4885         C5-C6=1.8371         C5-H13=1.0856        C5-H14=1.0835        
C6-C1=1.4801         C6-C5=1.8371         C6-H15=1.0866        C6-H16=1.0852        H7-C1=1.0851         H8-C2=1.0851         
H9-C3=1.0852         H10-C3=1.0866        H11-C4=1.0835        H12-C4=1.0856        H13-C5=1.0856        H14-C5=1.0835        
H15-C6=1.0866        H16-C6=1.0852        
 C  H  Rav=1.0852 sigma=0.0010  Rmin=1.0835  Rmax=1.0866    10
 C  C  Rav=1.5746 sigma=0.1940  Rmin=1.3243  Rmax=1.8373     6

 selected bond angles (degree)
 --------------------
C6-C1-C2=127.21                H7-C1-C2=118.69                H7-C1-C6=114.09                C3-C2-C1=127.20                
H8-C2-C1=118.69                H8-C2-C3=114.10                C4-C3-C2=110.39                H9-C3-C2=112.52                
H9-C3-C4=105.61                H10-C3-C2=112.35               H10-C3-C4=105.04               H10-C3-H9=110.45               
C5-C4-C3=107.18                H11-C4-C3=105.52               H11-C4-C5=113.32               H12-C4-C3=104.94               
H12-C4-C5=113.70               H12-C4-H11=111.37              C6-C5-C4=107.21                H13-C5-C4=113.70               
H13-C5-C6=104.93               H14-C5-C4=113.31               H14-C5-C6=105.53               H14-C5-H13=111.36              
C5-C6-C1=110.42                H15-C6-C1=112.33               H15-C6-C5=105.06               H16-C6-C1=112.51               
H16-C6-C5=105.61               H16-C6-H15=110.44              

 selected dihedral angles (degree)
 ---------------------------------
C3-C2-C1-C6=359.12            C3-C2-C1-H7=179.98            H8-C2-C1-C6=179.96            H8-C2-C1-H7=  0.82            
C4-C3-C2-C1= 14.76            C4-C3-C2-H8=193.94            H9-C3-C2-C1=132.46            H9-C3-C2-H8=311.65            
H10-C3-C2-C1=257.87           H10-C3-C2-H8= 77.06           C5-C4-C3-C2=312.13            C5-C4-C3-H9=190.25            
C5-C4-C3-H10= 73.46           H11-C4-C3-C2= 73.19           H11-C4-C3-H9=311.31           H11-C4-C3-H10=194.52          
H12-C4-C3-C2=190.93           H12-C4-C3-H9= 69.05           H12-C4-C3-H10=312.26          C6-C5-C4-C3= 59.89            
C6-C5-C4-H11=303.89           C6-C5-C4-H12=175.39           H13-C5-C4-C3=175.38           H13-C5-C4-H11= 59.39          
H13-C5-C4-H12=290.88          H14-C5-C4-C3=303.87           H14-C5-C4-H11=187.87          H14-C5-C4-H12= 59.37          
C5-C6-C1-C2= 14.58            C5-C6-C1-H7=193.75            H15-C6-C1-C2=257.67           H15-C6-C1-H7= 76.84           
H16-C6-C1-C2=132.29           H16-C6-C1-H7=311.46           C1-C6-C5-C4=312.28            C1-C6-C5-H13=191.09           
C1-C6-C5-H14= 73.35           H15-C6-C5-C4= 73.62           H15-C6-C5-H13=312.42          H15-C6-C5-H14=194.69          
H16-C6-C5-C4=190.41           H16-C6-C5-H13= 69.21          H16-C6-C5-H14=311.48          
           -------------------------------------------------
          |                Final Singlepoint                |
           -------------------------------------------------

          ...................................................
          :                      SETUP                      :
          :.................................................:
          :  # basis functions                  34          :
          :  # atomic orbitals                  34          :
          :  # shells                           22          :
          :  # electrons                        34          :
          :  max. iterations                   250          :
          :  Hamiltonian                  GFN2-xTB          :
          :  restarted?                      false          :
          :  GBSA solvation                  false          :
          :  PC potential                    false          :
          :  electronic temp.          300.0000000     K    :
          :  accuracy                    1.0000000          :
          :  -> integral cutoff          0.2500000E+02      :
          :  -> integral neglect         0.1000000E-07      :
          :  -> SCF convergence          0.1000000E-05 Eh   :
          :  -> wf. convergence          0.1000000E-03 e    :
          :  Broyden damping             0.4000000          :
          ...................................................

 iter      E             dE          RMSdq      gap      omega  full diag
   1    -18.1540302 -0.181540E+02  0.801E-05    5.08       0.0  T
   2    -18.1540302 -0.262546E-11  0.512E-05    5.08     488.6  T
   3    -18.1540302 -0.161648E-11  0.359E-05    5.08     697.2  T

   *** convergence criteria satisfied after 3 iterations ***

         #    Occupation            Energy/Eh            Energy/eV
      -------------------------------------------------------------
         1        2.0000           -0.6163330             -16.7713
       ...           ...                  ...                  ...
        11        2.0000           -0.4684579             -12.7474
        12        2.0000           -0.4630893             -12.6013
        13        2.0000           -0.4431072             -12.0576
        14        2.0000           -0.4385868             -11.9346
        15        2.0000           -0.4062520             -11.0547
        16        2.0000           -0.3938099             -10.7161
        17        2.0000           -0.3784160             -10.2972 (HOMO)
        18                         -0.1918035              -5.2192 (LUMO)
        19                         -0.1262429              -3.4352
        20                         -0.1030249              -2.8035
        21                          0.1168174               3.1788
        22                          0.1332543               3.6260
       ...                                ...                  ...
        34                          0.6441572              17.5284
      -------------------------------------------------------------
                  HL-Gap            0.1866125 Eh            5.0780 eV
             Fermi-level           -0.2851098 Eh           -7.7582 eV

 SCC (total)                   0 d,  0 h,  0 min,  0.004 sec
 SCC setup                      ...        0 min,  0.000 sec (  4.666%)
 Dispersion                     ...        0 min,  0.000 sec (  1.705%)
 classical contributions        ...        0 min,  0.000 sec (  0.283%)
 integral evaluation            ...        0 min,  0.000 sec (  9.236%)
 iterations                     ...        0 min,  0.002 sec ( 51.483%)
 molecular gradient             ...        0 min,  0.001 sec ( 24.618%)
 printout                       ...        0 min,  0.000 sec (  7.463%)

         :::::::::::::::::::::::::::::::::::::::::::::::::::::
         ::                     SUMMARY                     ::
         :::::::::::::::::::::::::::::::::::::::::::::::::::::
         :: total energy             -17.868723749905 Eh    ::
         :: gradient norm              0.000337127159 Eh/a0 ::
         :: HOMO-LUMO gap              5.077983542651 eV    ::
         ::.................................................::
         :: SCC energy               -18.154030243083 Eh    ::
         :: -> isotropic ES            0.002527334383 Eh    ::
         :: -> anisotropic ES          0.006527546676 Eh    ::
         :: -> anisotropic XC          0.012783968732 Eh    ::
         :: -> dispersion             -0.009847877395 Eh    ::
         :: repulsion energy           0.283624187671 Eh    ::
         :: add. restraining           0.001657228980 Eh    ::
         :: total charge              -0.000000000000 e     ::
         :::::::::::::::::::::::::::::::::::::::::::::::::::::

           -------------------------------------------------
          |                Property Printout                |
           -------------------------------------------------

    * Orbital Energies and Occupations

         #    Occupation            Energy/Eh            Energy/eV
      -------------------------------------------------------------
         1        2.0000           -0.6163330             -16.7713
       ...           ...                  ...                  ...
         5        2.0000           -0.5530939             -15.0504
         6        2.0000           -0.5208741             -14.1737
         7        2.0000           -0.5103831             -13.8882
         8        2.0000           -0.4921308             -13.3916
         9        2.0000           -0.4777695             -13.0008
        10        2.0000           -0.4703697             -12.7994
        11        2.0000           -0.4684579             -12.7474
        12        2.0000           -0.4630893             -12.6013
        13        2.0000           -0.4431072             -12.0576
        14        2.0000           -0.4385868             -11.9346
        15        2.0000           -0.4062520             -11.0547
        16        2.0000           -0.3938099             -10.7161
        17        2.0000           -0.3784160             -10.2972 (HOMO)
        18                         -0.1918035              -5.2192 (LUMO)
        19                         -0.1262429              -3.4352
        20                         -0.1030249              -2.8035
        21                          0.1168174               3.1788
        22                          0.1332543               3.6260
        23                          0.1569375               4.2705
        24                          0.1664844               4.5303
        25                          0.1885731               5.1313
        26                          0.1939895               5.2787
        27                          0.2224074               6.0520
        28                          0.2338576               6.3636
       ...                                ...                  ...
        34                          0.6441572              17.5284
      -------------------------------------------------------------
                  HL-Gap            0.1866125 Eh            5.0780 eV
             Fermi-level           -0.2851098 Eh           -7.7582 eV

     #   Z          covCN         q      C6AA      α(0)
     1   6 C        2.887    -0.037    28.917     8.816
     2   6 C        2.887    -0.037    28.917     8.816
     3   6 C        3.622    -0.066    22.247     6.799
     4   6 C        3.619    -0.061    22.170     6.791
     5   6 C        3.619    -0.061    22.168     6.790
     6   6 C        3.622    -0.066    22.245     6.799
     7   1 H        0.925     0.024     2.677     2.559
     8   1 H        0.925     0.024     2.677     2.559
     9   1 H        0.925     0.035     2.510     2.477
    10   1 H        0.925     0.040     2.449     2.447
    11   1 H        0.925     0.035     2.510     2.477
    12   1 H        0.925     0.029     2.596     2.520
    13   1 H        0.925     0.029     2.596     2.520
    14   1 H        0.925     0.035     2.510     2.477
    15   1 H        0.925     0.040     2.450     2.448
    16   1 H        0.925     0.036     2.509     2.477

 Mol. C6AA /au·bohr⁶  :       2070.660259
 Mol. C8AA /au·bohr⁸  :      45975.131161
 Mol. α(0) /au        :         69.772415


Wiberg/Mayer (AO) data.
largest (>0.10) Wiberg bond orders for each atom

 ---------------------------------------------------------------------------
     #   Z sym  total        # sym  WBO       # sym  WBO       # sym  WBO
 ---------------------------------------------------------------------------
     1   6 C    3.992 --     2 C    1.916     6 C    1.048     7 H    0.959
     2   6 C    3.992 --     1 C    1.916     3 C    1.048     8 H    0.959
     3   6 C    3.994 --     2 C    1.048     9 H    0.974    10 H    0.966
                             4 C    0.948
     4   6 C    3.994 --     5 C    1.053    11 H    0.984    12 H    0.976
                             3 C    0.948
     5   6 C    3.994 --     4 C    1.053    14 H    0.984    13 H    0.976
                             6 C    0.948
     6   6 C    3.994 --     1 C    1.048    16 H    0.973    15 H    0.966
                             5 C    0.948
     7   1 H    0.999 --     1 C    0.959
     8   1 H    0.999 --     2 C    0.959
     9   1 H    0.999 --     3 C    0.974
    10   1 H    0.998 --     3 C    0.966
    11   1 H    0.999 --     4 C    0.984
    12   1 H    0.999 --     4 C    0.976
    13   1 H    0.999 --     5 C    0.976
    14   1 H    0.999 --     5 C    0.984
    15   1 H    0.998 --     6 C    0.966
    16   1 H    0.999 --     6 C    0.973
 ---------------------------------------------------------------------------

Topologies differ in total number of bonds
Writing topology from bond orders to xtbtopo.mol

molecular dipole:
                 x           y           z       tot (Debye)
 q only:        0.027      -0.092       0.013
   full:        0.028      -0.097       0.014       0.260
molecular quadrupole (traceless):
                xx          xy          yy          xz          yz          zz
 q only:        0.676       0.263      -0.252      -0.167      -0.063      -0.424
  q+dip:        1.443       0.470      -0.080      -0.019      -0.176      -1.363
   full:        0.971       0.353      -0.161      -0.007      -0.083      -0.809

           -------------------------------------------------
          |                Geometry Summary                 |
           -------------------------------------------------

      molecular mass/u    :       82.1438229
   center of mass at/Å    :       -0.0334710       0.1158364      -0.0170382
  moments of inertia/u·Å² :        0.1151589E+03   0.1229116E+03   0.2157748E+03
rotational constants/cm⁻¹ :        0.1463858E+00   0.1371525E+00   0.7812604E-01

 * 12 selected distances

     #   Z          #   Z                                           value/Å
     1   6 C        2   6 C                                       1.3242698
     4   6 C        5   6 C                                       1.4885246 (max)
     1   6 C        7   1 H                                       1.0850861
     2   6 C        8   1 H                                       1.0850798
     3   6 C        9   1 H                                       1.0852224
     3   6 C       10   1 H                                       1.0866389
     4   6 C       11   1 H                                       1.0834631
     4   6 C       12   1 H                                       1.0855807
     5   6 C       13   1 H                                       1.0856110
     5   6 C       14   1 H                                       1.0834583 (min)
     6   6 C       15   1 H                                       1.0866434
     6   6 C       16   1 H                                       1.0852375

 * 2 distinct bonds (by element types)

   Z      Z             #   av. dist./Å        max./Å        min./Å
   1 H    6 C          10     1.0852021     1.0866434     1.0834583
   6 C    6 C           2     1.4063972     1.4885246     1.3242698


optimized geometry written to: xtbopt.xyz


           -------------------------------------------------
          | TOTAL ENERGY              -17.868723749905 Eh   |
          | GRADIENT NORM               0.000337127159 Eh/α |
          | HOMO-LUMO GAP               5.077983542651 eV   |
           -------------------------------------------------

------------------------------------------------------------------------
 * finished run on 2025/05/23 at 11:05:31.582     
------------------------------------------------------------------------
 total:
 * wall-time:     0 d,  0 h,  0 min,  0.077 sec
 *  cpu-time:     0 d,  0 h,  0 min,  1.064 sec
 * ratio c/w:    13.838 speedup
 SCF:
 * wall-time:     0 d,  0 h,  0 min,  0.009 sec
 *  cpu-time:     0 d,  0 h,  0 min,  0.134 sec
 * ratio c/w:    14.955 speedup
 ANC optimizer:
 * wall-time:     0 d,  0 h,  0 min,  0.058 sec
 *  cpu-time:     0 d,  0 h,  0 min,  0.819 sec
 * ratio c/w:    14.106 speedup

