      -----------------------------------------------------------      
     |                   =====================                   |     
     |                           x T B                           |     
     |                   =====================                   |     
     |                         S. Grimme                         |     
     |          Mulliken Center for Theoretical Chemistry        |     
     |                    University of Bonn                     |     
      -----------------------------------------------------------      

   * xtb version 6.6.1 (8d0f1dd) compiled by 'conda@1efc2f54142f' on 2023-08-01

   xtb is free software: you can redistribute it and/or modify it under
   the terms of the GNU Lesser General Public License as published by
   the Free Software Foundation, either version 3 of the License, or
   (at your option) any later version.
   
   xtb is distributed in the hope that it will be useful,
   but WITHOUT ANY WARRANTY; without even the implied warranty of
   MERCHANTABILITY or FITNESS FOR A PARTICULAR PURPOSE.  See the
   GNU Lesser General Public License for more details.
   
   Cite this work as:
   * C. Bannwarth, E. Caldeweyher, S. Ehlert, A. Hansen, P. Pracht,
     J. Seibert, S. Spicher, S. Grimme, WIREs Comput. Mol. Sci., 2020, 11,
     e01493. DOI: 10.1002/wcms.1493
   
   for GFN2-xTB:
   * C. Bannwarth, S. Ehlert and S. Grimme., J. Chem. Theory Comput., 2019,
     15, 1652-1671. DOI: 10.1021/acs.jctc.8b01176
   for GFN1-xTB:
   * S. Grimme, C. Bannwarth, P. Shushkov, J. Chem. Theory Comput., 2017,
     13, 1989-2009. DOI: 10.1021/acs.jctc.7b00118
   for GFN0-xTB:
   * P. Pracht, E. Caldeweyher, S. Ehlert, S. Grimme, ChemRxiv, 2019, preprint.
     DOI: 10.26434/chemrxiv.8326202.v1
   for GFN-FF:
   * S. Spicher and S. Grimme, Angew. Chem. Int. Ed., 2020, 59, 15665-15673.
     DOI: 10.1002/anie.202004239
   
   for ALPB and GBSA implicit solvation:
   * S. Ehlert, M. Stahn, S. Spicher, S. Grimme, J. Chem. Theory Comput.,
     2021, 17, 4250-4261. DOI: 10.1021/acs.jctc.1c00471
   
   for DFT-D4:
   * E. Caldeweyher, C. Bannwarth and S. Grimme, J. Chem. Phys., 2017,
     147, 034112. DOI: 10.1063/1.4993215
   * E. Caldeweyher, S. Ehlert, A. Hansen, H. Neugebauer, S. Spicher,
     C. Bannwarth and S. Grimme, J. Chem. Phys., 2019, 150, 154122.
     DOI: 10.1063/1.5090222
   * E. Caldeweyher, J.-M. Mewes, S. Ehlert and S. Grimme, Phys. Chem. Chem. Phys.
     2020, 22, 8499-8512. DOI: 10.1039/D0CP00502A
   
   for sTDA-xTB:
   * S. Grimme and C. Bannwarth, J. Chem. Phys., 2016, 145, 054103.
     DOI: 10.1063/1.4959605
   
   in the mass-spec context:
   * V. Asgeirsson, C. Bauer and S. Grimme, Chem. Sci., 2017, 8, 4879.
     DOI: 10.1039/c7sc00601b
   * J. Koopman and S. Grimme, ACS Omega 2019, 4, 12, 15120-15133.
     DOI: 10.1021/acsomega.9b02011
   
   for metadynamics refer to:
   * S. Grimme, J. Chem. Theory Comput., 2019, 155, 2847-2862
     DOI: 10.1021/acs.jctc.9b00143
   
   for SPH calculations refer to:
   * S. Spicher and S. Grimme, J. Chem. Theory Comput., 2021, 17, 1701-1714
     DOI: 10.1021/acs.jctc.0c01306
   
   with help from (in alphabetical order)
   P. Atkinson, C. Bannwarth, F. Bohle, G. Brandenburg, E. Caldeweyher
   M. Checinski, S. Dohm, S. Ehlert, S. Ehrlich, I. Gerasimov, C. Hölzer
   A. Katbashev, J. Koopman, C. Lavigne, S. Lehtola, F. März, M. Müller,
   F. Musil, H. Neugebauer, J. Pisarek, C. Plett, P. Pracht, F. Pultar,
   J. Seibert, P. Shushkov, S. Spicher, M. Stahn, M. Steiner, T. Strunk,
   J. Stückrath, T. Rose, and J. Unsleber
   
 * started run on 2025/05/23 at 11:05:32.103     

           -------------------------------------------------
          |                Calculation Setup                |
           -------------------------------------------------

          program call               : /gpfs/fs1/home/copan/code/autode-practice/.pixi/envs/default/bin/xtb path_opt5_xtb.xyz --chrg 0 --uhf 0 --opt --input xcontrol_path_opt5_xtb
          hostname                   : beboplogin4.lcrc.anl.gov
          coordinate file            : path_opt5_xtb.xyz
          omp threads                :                     8

   ID    Z sym.   atoms
    1    6 C      1-6
    2    1 H      7-16
constraining bond 3 4 to    1.9262000 Å, actual value:    1.8761812 Å
constraining bond 5 6 to    1.9260000 Å, actual value:    1.8760312 Å

           -------------------------------------------------
          |                 G F N 2 - x T B                 |
           -------------------------------------------------

        Reference                      10.1021/acs.jctc.8b01176
      * Hamiltonian:
        H0-scaling (s, p, d)           1.850000    2.230000    2.230000
        zeta-weighting                 0.500000
      * Dispersion:
        s8                             2.700000
        a1                             0.520000
        a2                             5.000000
        s9                             5.000000
      * Repulsion:
        kExp                           1.500000    1.000000
        rExp                           1.000000
      * Coulomb:
        alpha                          2.000000
        third order                    shell-resolved
        anisotropic                    true
        a3                             3.000000
        a5                             4.000000
        cn-shift                       1.200000
        cn-exp                         4.000000
        max-rad                        5.000000


          ...................................................
          :                      SETUP                      :
          :.................................................:
          :  # basis functions                  34          :
          :  # atomic orbitals                  34          :
          :  # shells                           22          :
          :  # electrons                        34          :
          :  max. iterations                   250          :
          :  Hamiltonian                  GFN2-xTB          :
          :  restarted?                      false          :
          :  GBSA solvation                  false          :
          :  PC potential                    false          :
          :  electronic temp.          300.0000000     K    :
          :  accuracy                    1.0000000          :
          :  -> integral cutoff          0.2500000E+02      :
          :  -> integral neglect         0.1000000E-07      :
          :  -> SCF convergence          0.1000000E-05 Eh   :
          :  -> wf. convergence          0.1000000E-03 e    :
          :  Broyden damping             0.4000000          :
          ...................................................

 iter      E             dE          RMSdq      gap      omega  full diag
   1    -18.1138079 -0.181138E+02  0.323E+00    5.12       0.0  T
   2    -18.1413379 -0.275300E-01  0.182E+00    5.05       1.0  T
   3    -18.1413769 -0.389277E-04  0.687E-01    5.00       1.0  T
   4    -18.1410942  0.282691E-03  0.298E-01    5.01       1.0  T
   5    -18.1423744 -0.128024E-02  0.569E-02    5.01       1.0  T
   6    -18.1423759 -0.151379E-05  0.160E-02    5.01       1.6  T
   7    -18.1423761 -0.168623E-06  0.229E-03    5.01      10.9  T
   8    -18.1423761 -0.794316E-10  0.785E-04    5.01      31.8  T
   9    -18.1423761 -0.594534E-08  0.286E-04    5.01      87.4  T

   *** convergence criteria satisfied after 9 iterations ***

         #    Occupation            Energy/Eh            Energy/eV
      -------------------------------------------------------------
         1        2.0000           -0.6155407             -16.7497
       ...           ...                  ...                  ...
        11        2.0000           -0.4683231             -12.7437
        12        2.0000           -0.4625586             -12.5869
        13        2.0000           -0.4417715             -12.0212
        14        2.0000           -0.4395349             -11.9604
        15        2.0000           -0.4039948             -10.9933
        16        2.0000           -0.3912523             -10.6465
        17        2.0000           -0.3773337             -10.2678 (HOMO)
        18                         -0.1932903              -5.2597 (LUMO)
        19                         -0.1429129              -3.8889
        20                         -0.1195604              -3.2534
        21                          0.1163798               3.1669
        22                          0.1335990               3.6354
       ...                                ...                  ...
        34                          0.6448805              17.5481
      -------------------------------------------------------------
                  HL-Gap            0.1840434 Eh            5.0081 eV
             Fermi-level           -0.2853120 Eh           -7.7637 eV

 SCC (total)                   0 d,  0 h,  0 min,  0.009 sec
 SCC setup                      ...        0 min,  0.000 sec (  2.640%)
 Dispersion                     ...        0 min,  0.000 sec (  1.359%)
 classical contributions        ...        0 min,  0.000 sec (  2.448%)
 integral evaluation            ...        0 min,  0.000 sec (  4.623%)
 iterations                     ...        0 min,  0.007 sec ( 74.790%)
 molecular gradient             ...        0 min,  0.001 sec ( 10.710%)
 printout                       ...        0 min,  0.000 sec (  3.218%)

         :::::::::::::::::::::::::::::::::::::::::::::::::::::
         ::                     SUMMARY                     ::
         :::::::::::::::::::::::::::::::::::::::::::::::::::::
         :: total energy             -17.822524252548 Eh    ::
         :: gradient norm              0.588242437014 Eh/a0 ::
         :: HOMO-LUMO gap              5.008076219469 eV    ::
         ::.................................................::
         :: SCC energy               -18.142376084709 Eh    ::
         :: -> isotropic ES            0.002529538097 Eh    ::
         :: -> anisotropic ES          0.006774997146 Eh    ::
         :: -> anisotropic XC          0.012914725239 Eh    ::
         :: -> dispersion             -0.009889533499 Eh    ::
         :: repulsion energy           0.284124121767 Eh    ::
         :: add. restraining           0.035701797539 Eh    ::
         :: total charge              -0.000000000000 e     ::
         :::::::::::::::::::::::::::::::::::::::::::::::::::::

      ----------------------------------------------------------- 
     |                   =====================                   |
     |                        A N C O P T                        |
     |                   =====================                   |
     |               Approximate Normal Coordinate               |
     |                Rational Function Optimizer                |
      ----------------------------------------------------------- 

          ...................................................
          :                      SETUP                      :
          :.................................................:
          :   optimization level            normal          :
          :   max. optcycles                   200          :
          :   ANC micro-cycles                  20          :
          :   degrees of freedom                42          :
          :.................................................:
          :   RF solver                   davidson          :
          :   write xtbopt.log                true          :
          :   linear?                        false          :
          :   energy convergence         0.5000000E-05 Eh   :
          :   grad. convergence          0.1000000E-02 Eh/α :
          :   maxmium RF displ.          1.0000000          :
          :   Hlow (freq-cutoff)         0.1000000E-01      :
          :   Hmax (freq-cutoff)         5.0000000          :
          :   S6 in model hess.         20.0000000          :
          ...................................................

generating ANC from model Hessian ...
Using Lindh-Hessian (1995)
 Shifting diagonal of input Hessian by    6.6218904792322023E-002
 Lowest  eigenvalues of input Hessian
    0.010000    0.023232    0.035916    0.062269    0.000000    0.000000
    0.000000    0.000000    0.000000    0.000000    0.075860    0.078757
    0.081164    0.088541    0.091019    0.095233    0.098398    0.099739
 Highest eigenvalues
    1.230909    1.298647    1.545132    1.994832    8.547865    8.559283


........................................................................
.............................. CYCLE    1 ..............................
........................................................................

 iter      E             dE          RMSdq      gap      omega  full diag
   1    -18.1423761 -0.181424E+02  0.101E-04    5.01       0.0  T
   2    -18.1423761 -0.602540E-11  0.577E-05    5.01     433.6  T
   3    -18.1423761  0.813571E-11  0.371E-05    5.01     674.3  T
     SCC iter.                  ...        0 min,  0.002 sec
     gradient                   ...        0 min,  0.001 sec
 * total energy  :   -17.8225243 Eh     change       -0.5318128E-09 Eh
   gradient norm :     0.5882426 Eh/α   predicted     0.0000000E+00 (-100.00%)
   displ. norm   :     0.1249785 α      lambda       -0.6887063E-01
   maximum displ.:     0.1159886 α      in ANC's #41, #27, #11, ...

........................................................................
.............................. CYCLE    2 ..............................
........................................................................

 iter      E             dE          RMSdq      gap      omega  full diag
   1    -18.1292584 -0.181293E+02  0.120E-01    4.79       0.0  T
   2    -18.1292725 -0.141454E-04  0.712E-02    4.79       1.0  T
   3    -18.1292724  0.120876E-06  0.153E-02    4.79       1.6  T
   4    -18.1292726 -0.179709E-06  0.431E-03    4.79       5.8  T
   5    -18.1292728 -0.265356E-06  0.123E-03    4.79      20.3  T
   6    -18.1292728 -0.689852E-08  0.508E-04    4.79      49.2  T
   7    -18.1292728 -0.790905E-10  0.639E-05    4.79     391.5  T
     SCC iter.                  ...        0 min,  0.003 sec
     gradient                   ...        0 min,  0.001 sec
 * total energy  :   -17.8360966 Eh     change       -0.1357233E-01 Eh
   gradient norm :     0.3580481 Eh/α   predicted    -0.3497318E-01 ( 157.68%)
   displ. norm   :     0.0453802 α      lambda       -0.1575181E-01
   maximum displ.:     0.0438790 α      in ANC's #41, #9, #2, ...

........................................................................
.............................. CYCLE    3 ..............................
........................................................................

 iter      E             dE          RMSdq      gap      omega  full diag
   1    -18.1321094 -0.181321E+02  0.649E-02    4.89       0.0  T
   2    -18.1321130 -0.366123E-05  0.373E-02    4.89       1.0  T
   3    -18.1321130  0.385312E-07  0.808E-03    4.89       3.1  T
   4    -18.1321130 -0.555674E-07  0.189E-03    4.89      13.2  T
   5    -18.1321131 -0.545305E-07  0.419E-04    4.89      59.6  T
   6    -18.1321131 -0.117775E-08  0.187E-04    4.89     134.0  T
     SCC iter.                  ...        0 min,  0.003 sec
     gradient                   ...        0 min,  0.001 sec
 * total energy  :   -17.8440259 Eh     change       -0.7929332E-02 Eh
   gradient norm :     0.0029969 Eh/α   predicted    -0.7892122E-02 (  -0.47%)
   displ. norm   :     0.0176371 α      lambda       -0.3082468E-04
   maximum displ.:     0.0088481 α      in ANC's #2, #11, #9, ...

........................................................................
.............................. CYCLE    4 ..............................
........................................................................

 iter      E             dE          RMSdq      gap      omega  full diag
   1    -18.1313466 -0.181313E+02  0.177E-02    4.90       0.0  T
   2    -18.1313466 -0.496553E-07  0.102E-02    4.90       2.4  T
   3    -18.1313466  0.527538E-07  0.212E-03    4.90      11.8  T
   4    -18.1313466 -0.599828E-07  0.531E-04    4.90      47.1  T
   5    -18.1313466 -0.335958E-08  0.139E-04    4.90     180.1  T
     SCC iter.                  ...        0 min,  0.003 sec
     gradient                   ...        0 min,  0.001 sec
 * total energy  :   -17.8440485 Eh     change       -0.2258306E-04 Eh
   gradient norm :     0.0014241 Eh/α   predicted    -0.1541860E-04 ( -31.72%)
   displ. norm   :     0.0468273 α      lambda       -0.2947278E-04
   maximum displ.:     0.0280353 α      in ANC's #1, #9, #11, ...

........................................................................
.............................. CYCLE    5 ..............................
........................................................................

 iter      E             dE          RMSdq      gap      omega  full diag
   1    -18.1294162 -0.181294E+02  0.557E-02    4.90       0.0  T
   2    -18.1294166 -0.420596E-06  0.325E-02    4.90       1.0  T
   3    -18.1294157  0.921642E-06  0.840E-03    4.90       3.0  T
   4    -18.1294167 -0.101383E-05  0.168E-03    4.90      14.9  T
   5    -18.1294167 -0.333734E-07  0.522E-04    4.90      47.9  T
   6    -18.1294167 -0.159567E-08  0.290E-04    4.90      86.3  T
     SCC iter.                  ...        0 min,  0.003 sec
     gradient                   ...        0 min,  0.001 sec
 * total energy  :   -17.8440222 Eh     change        0.2627113E-04 Eh
   gradient norm :     0.0045531 Eh/α   predicted    -0.1475252E-04 (-156.15%)
   displ. norm   :     0.0395336 α      lambda       -0.6902269E-04
   maximum displ.:     0.0375760 α      in ANC's #1, #2, #9, ...

........................................................................
.............................. CYCLE    6 ..............................
........................................................................

 iter      E             dE          RMSdq      gap      omega  full diag
   1    -18.1292583 -0.181293E+02  0.462E-02    4.90       0.0  T
   2    -18.1292584 -0.150132E-06  0.274E-02    4.90       1.0  T
   3    -18.1292574  0.101591E-05  0.860E-03    4.90       2.9  T
   4    -18.1292585 -0.110919E-05  0.100E-03    4.90      24.9  T
   5    -18.1292585 -0.972535E-08  0.394E-04    4.90      63.4  T
   6    -18.1292585 -0.403833E-09  0.215E-04    4.90     116.5  T
     SCC iter.                  ...        0 min,  0.003 sec
     gradient                   ...        0 min,  0.001 sec
 * total energy  :   -17.8440402 Eh     change       -0.1796745E-04 Eh
   gradient norm :     0.0030073 Eh/α   predicted    -0.3456417E-04 (  92.37%)
   displ. norm   :     0.0407548 α      lambda       -0.7430512E-04
   maximum displ.:     0.0256503 α      in ANC's #2, #9, #11, ...

........................................................................
.............................. CYCLE    7 ..............................
........................................................................

 iter      E             dE          RMSdq      gap      omega  full diag
   1    -18.1312552 -0.181313E+02  0.535E-02    4.90       0.0  T
   2    -18.1312555 -0.374824E-06  0.313E-02    4.90       1.0  T
   3    -18.1312545  0.106740E-05  0.903E-03    4.90       2.8  T
   4    -18.1312557 -0.120762E-05  0.111E-03    4.90      22.5  T
   5    -18.1312557 -0.133766E-07  0.418E-04    4.90      59.8  T
   6    -18.1312557 -0.381238E-09  0.277E-04    4.90      90.2  T
     SCC iter.                  ...        0 min,  0.003 sec
     gradient                   ...        0 min,  0.001 sec
 * total energy  :   -17.8440412 Eh     change       -0.1023730E-05 Eh
   gradient norm :     0.0042346 Eh/α   predicted    -0.3721455E-04 (3535.19%)
   displ. norm   :     0.0238367 α      lambda       -0.4815099E-04
   maximum displ.:     0.0225867 α      in ANC's #2, #6, #9, ...

........................................................................
.............................. CYCLE    8 ..............................
........................................................................

 iter      E             dE          RMSdq      gap      omega  full diag
   1    -18.1308790 -0.181309E+02  0.331E-02    4.90       0.0  T
   2    -18.1308791 -0.279230E-07  0.195E-02    4.90       1.3  T
   3    -18.1308788  0.227311E-06  0.395E-03    4.90       6.3  T
   4    -18.1308791 -0.255239E-06  0.297E-04    4.90      84.3  T
   5    -18.1308791 -0.107715E-09  0.159E-04    4.90     157.0  T
     SCC iter.                  ...        0 min,  0.003 sec
     gradient                   ...        0 min,  0.001 sec
 * total energy  :   -17.8440628 Eh     change       -0.2160929E-04 Eh
   gradient norm :     0.0005476 Eh/α   predicted    -0.2408955E-04 (  11.48%)
   displ. norm   :     0.0171547 α      lambda       -0.3673845E-05
   maximum displ.:     0.0116112 α      in ANC's #2, #9, #11, ...

........................................................................
.............................. CYCLE    9 ..............................
........................................................................

 iter      E             dE          RMSdq      gap      omega  full diag
   1    -18.1303577 -0.181304E+02  0.123E-02    4.90       0.0  T
   2    -18.1303578 -0.270481E-07  0.714E-03    4.90       3.5  T
   3    -18.1303578  0.863690E-08  0.104E-03    4.90      24.1  T
   4    -18.1303578 -0.858449E-08  0.487E-04    4.90      51.4  T
   5    -18.1303578 -0.317177E-08  0.114E-04    4.90     219.2  T
     SCC iter.                  ...        0 min,  0.003 sec
     gradient                   ...        0 min,  0.001 sec
 * total energy  :   -17.8440643 Eh     change       -0.1500096E-05 Eh
   gradient norm :     0.0006970 Eh/α   predicted    -0.1837386E-05 (  22.48%)
   displ. norm   :     0.0061137 α      lambda       -0.1845651E-05
   maximum displ.:     0.0026689 α      in ANC's #2, #15, #6, ...

   *** GEOMETRY OPTIMIZATION CONVERGED AFTER 9 ITERATIONS ***

------------------------------------------------------------------------
 total energy gain   :        -0.0215401 Eh      -13.5166 kcal/mol
 total RMSD          :         0.0307683 a0        0.0163 Å
 total power (kW/mol):        -6.2837178 (step)-1142.8014 (real)
------------------------------------------------------------------------

 ANCopt (total)                0 d,  0 h,  0 min,  0.050 sec
 optimizer setup                ...        0 min,  0.000 sec (  0.356%)
 model hessian                  ...        0 min,  0.007 sec ( 14.035%)
 ANC generation                 ...        0 min,  0.000 sec (  0.906%)
 coordinate transformation      ...        0 min,  0.000 sec (  0.099%)
 single point calculation       ...        0 min,  0.037 sec ( 75.297%)
 optimization log               ...        0 min,  0.001 sec (  3.003%)
 hessian update                 ...        0 min,  0.000 sec (  0.195%)
 rational function              ...        0 min,  0.001 sec (  2.862%)

================
 final structure:
================
16
 xtb: 6.6.1 (8d0f1dd)
C            0.23015436994839        1.55553436873755       -0.31812358477497
C           -1.03259568842641        1.22459819764806       -0.09093670668381
C           -1.58004121142494       -0.11200800083164        0.21574463334535
C           -0.17069216526917       -1.31604653317480        0.69668462341253
C            0.88607143591884       -1.16273321216972       -0.32970504799178
C            1.41677651973542        0.67684181452874       -0.30111850222028
H            0.45877694587249        2.59514513300281       -0.53388384141719
H           -1.78610339129363        2.00520217173795       -0.14084829180138
H           -2.24350511819240       -0.11320082766753        1.07318946652385
H           -2.04725271223395       -0.58619943775805       -0.64161261499206
H            0.12942885176977       -1.00821411106243        1.68994850957156
H           -0.65645329713203       -2.28632490955218        0.70071256390158
H            1.80600748344643       -1.69524165574845       -0.11145752260327
H            0.54734074402676       -1.33683166530650       -1.34286899591003
H            1.99760683647797        0.76663989489367        0.61151973716063
H            2.04459039677646        0.79310877272252       -1.17726442552073

 Bond Distances (Angstroems)
 ---------------------------
C1-C2=1.3250         C1-C6=1.4766         C1-H7=1.0861         C2-C1=1.3250         C2-C3=1.4766         C2-H8=1.0861         
C3-C2=1.4766         C3-C4=1.9150         C3-H9=1.0842         C3-H10=1.0855        C4-C3=1.9150         C4-C5=1.4811         
C4-H11=1.0823        C4-H12=1.0851        C5-C4=1.4811         C5-C6=1.9148         C5-H13=1.0851        C5-H14=1.0824        
C6-C1=1.4766         C6-C5=1.9148         C6-H15=1.0855        C6-H16=1.0841        H7-C1=1.0861         H8-C2=1.0861         
H9-C3=1.0842         H10-C3=1.0855        H11-C4=1.0823        H12-C4=1.0851        H13-C5=1.0851        H14-C5=1.0824        
H15-C6=1.0855        H16-C6=1.0841        
 C  H  Rav=1.0846 sigma=0.0013  Rmin=1.0823  Rmax=1.0861    10
 C  C  Rav=1.5982 sigma=0.2304  Rmin=1.3250  Rmax=1.9150     6

 selected bond angles (degree)
 --------------------
C6-C1-C2=127.97                H7-C1-C2=118.28                H7-C1-C6=113.75                C3-C2-C1=127.95                
H8-C2-C1=118.28                H8-C2-C3=113.76                C4-C3-C2=110.39                H9-C3-C2=113.09                
H9-C3-C4=104.54                H10-C3-C2=113.02               H10-C3-C4=103.91               H10-C3-H9=111.15               
C5-C4-C3=106.62                H11-C4-C3=104.82               H11-C4-C5=114.12               H12-C4-C3=103.51               
H12-C4-C5=114.49               H12-C4-H11=112.03              C6-C5-C4=106.67                H13-C5-C4=114.50               
H13-C5-C6=103.50               H14-C5-C4=114.13               H14-C5-C6=104.79               H14-C5-H13=112.00              
C5-C6-C1=110.41                H15-C6-C1=112.98               H15-C6-C5=103.91               H16-C6-C1=113.09               
H16-C6-C5=104.56               H16-C6-H15=111.14              

 selected dihedral angles (degree)
 ---------------------------------
C3-C2-C1-C6=358.90            C3-C2-C1-H7=179.78            H8-C2-C1-C6=179.77            H8-C2-C1-H7=  0.65            
C4-C3-C2-C1= 14.49            C4-C3-C2-H8=193.66            H9-C3-C2-C1=131.21            H9-C3-C2-H8=310.38            
H10-C3-C2-C1=258.60           H10-C3-C2-H8= 77.77           C6-C5-C4-C3= 58.59            C6-C5-C4-H11=303.38           
C6-C5-C4-H12=172.42           H13-C5-C4-C3=172.44           H13-C5-C4-H11= 57.23          H13-C5-C4-H12=286.27          
H14-C5-C4-C3=303.38           H14-C5-C4-H11=188.16          H14-C5-C4-H12= 57.20          C5-C6-C1-C2= 14.25            
C5-C6-C1-H7=193.40            H15-C6-C1-C2=258.38           H15-C6-C1-H7= 77.52           H16-C6-C1-C2=131.02           
H16-C6-C1-H7=310.17           
           -------------------------------------------------
          |                Final Singlepoint                |
           -------------------------------------------------

          ...................................................
          :                      SETUP                      :
          :.................................................:
          :  # basis functions                  34          :
          :  # atomic orbitals                  34          :
          :  # shells                           22          :
          :  # electrons                        34          :
          :  max. iterations                   250          :
          :  Hamiltonian                  GFN2-xTB          :
          :  restarted?                      false          :
          :  GBSA solvation                  false          :
          :  PC potential                    false          :
          :  electronic temp.          300.0000000     K    :
          :  accuracy                    1.0000000          :
          :  -> integral cutoff          0.2500000E+02      :
          :  -> integral neglect         0.1000000E-07      :
          :  -> SCF convergence          0.1000000E-05 Eh   :
          :  -> wf. convergence          0.1000000E-03 e    :
          :  Broyden damping             0.4000000          :
          ...................................................

 iter      E             dE          RMSdq      gap      omega  full diag
   1    -18.1303578 -0.181304E+02  0.669E-05    4.90       0.0  T
   2    -18.1303578 -0.878231E-11  0.548E-05    4.90     456.1  T
   3    -18.1303578 -0.386251E-10  0.176E-05    4.90    1417.7  T

   *** convergence criteria satisfied after 3 iterations ***

         #    Occupation            Energy/Eh            Energy/eV
      -------------------------------------------------------------
         1        2.0000           -0.6149043             -16.7324
       ...           ...                  ...                  ...
        11        2.0000           -0.4682064             -12.7405
        12        2.0000           -0.4620261             -12.5724
        13        2.0000           -0.4406593             -11.9909
        14        2.0000           -0.4403634             -11.9829
        15        2.0000           -0.4017245             -10.9315
        16        2.0000           -0.3890492             -10.5866
        17        2.0000           -0.3757314             -10.2242 (HOMO)
        18                         -0.1956489              -5.3239 (LUMO)
        19                         -0.1569717              -4.2714
        20                         -0.1343257              -3.6552
        21                          0.1159535               3.1553
        22                          0.1335731               3.6347
       ...                                ...                  ...
        34                          0.6453043              17.5596
      -------------------------------------------------------------
                  HL-Gap            0.1800824 Eh            4.9003 eV
             Fermi-level           -0.2856902 Eh           -7.7740 eV

 SCC (total)                   0 d,  0 h,  0 min,  0.004 sec
 SCC setup                      ...        0 min,  0.000 sec (  4.988%)
 Dispersion                     ...        0 min,  0.000 sec (  1.671%)
 classical contributions        ...        0 min,  0.000 sec (  0.284%)
 integral evaluation            ...        0 min,  0.000 sec (  9.008%)
 iterations                     ...        0 min,  0.002 sec ( 50.330%)
 molecular gradient             ...        0 min,  0.001 sec ( 25.639%)
 printout                       ...        0 min,  0.000 sec (  7.543%)

         :::::::::::::::::::::::::::::::::::::::::::::::::::::
         ::                     SUMMARY                     ::
         :::::::::::::::::::::::::::::::::::::::::::::::::::::
         :: total energy             -17.844064327808 Eh    ::
         :: gradient norm              0.000696625340 Eh/a0 ::
         :: HOMO-LUMO gap              4.900292228832 eV    ::
         ::.................................................::
         :: SCC energy               -18.130357764849 Eh    ::
         :: -> isotropic ES            0.002531343715 Eh    ::
         :: -> anisotropic ES          0.007008835341 Eh    ::
         :: -> anisotropic XC          0.013047562350 Eh    ::
         :: -> dispersion             -0.010008103983 Eh    ::
         :: repulsion energy           0.284478687361 Eh    ::
         :: add. restraining           0.001787831260 Eh    ::
         :: total charge               0.000000000000 e     ::
         :::::::::::::::::::::::::::::::::::::::::::::::::::::

           -------------------------------------------------
          |                Property Printout                |
           -------------------------------------------------

    * Orbital Energies and Occupations

         #    Occupation            Energy/Eh            Energy/eV
      -------------------------------------------------------------
         1        2.0000           -0.6149043             -16.7324
       ...           ...                  ...                  ...
         5        2.0000           -0.5507839             -14.9876
         6        2.0000           -0.5196861             -14.1414
         7        2.0000           -0.5084430             -13.8354
         8        2.0000           -0.4916036             -13.3772
         9        2.0000           -0.4755825             -12.9413
        10        2.0000           -0.4720509             -12.8452
        11        2.0000           -0.4682064             -12.7405
        12        2.0000           -0.4620261             -12.5724
        13        2.0000           -0.4406593             -11.9909
        14        2.0000           -0.4403634             -11.9829
        15        2.0000           -0.4017245             -10.9315
        16        2.0000           -0.3890492             -10.5866
        17        2.0000           -0.3757314             -10.2242 (HOMO)
        18                         -0.1956489              -5.3239 (LUMO)
        19                         -0.1569717              -4.2714
        20                         -0.1343257              -3.6552
        21                          0.1159535               3.1553
        22                          0.1335731               3.6347
        23                          0.1562979               4.2531
        24                          0.1724054               4.6914
        25                          0.1928859               5.2487
        26                          0.2020055               5.4968
        27                          0.2207529               6.0070
        28                          0.2364798               6.4349
       ...                                ...                  ...
        34                          0.6453043              17.5596
      -------------------------------------------------------------
                  HL-Gap            0.1800824 Eh            4.9003 eV
             Fermi-level           -0.2856902 Eh           -7.7740 eV

     #   Z          covCN         q      C6AA      α(0)
     1   6 C        2.887    -0.036    28.901     8.814
     2   6 C        2.887    -0.036    28.901     8.814
     3   6 C        3.492    -0.068    23.645     7.235
     4   6 C        3.489    -0.062    23.574     7.232
     5   6 C        3.490    -0.062    23.568     7.230
     6   6 C        3.493    -0.068    23.639     7.233
     7   1 H        0.925     0.025     2.660     2.550
     8   1 H        0.925     0.025     2.660     2.550
     9   1 H        0.925     0.036     2.506     2.476
    10   1 H        0.925     0.040     2.449     2.447
    11   1 H        0.925     0.036     2.509     2.477
    12   1 H        0.925     0.030     2.583     2.513
    13   1 H        0.925     0.030     2.584     2.514
    14   1 H        0.925     0.036     2.509     2.477
    15   1 H        0.925     0.040     2.449     2.447
    16   1 H        0.925     0.036     2.506     2.475

 Mol. C6AA /au·bohr⁶  :       2123.758120
 Mol. C8AA /au·bohr⁸  :      47335.269692
 Mol. α(0) /au        :         71.484635


Wiberg/Mayer (AO) data.
largest (>0.10) Wiberg bond orders for each atom

 ---------------------------------------------------------------------------
     #   Z sym  total        # sym  WBO       # sym  WBO       # sym  WBO
 ---------------------------------------------------------------------------
     1   6 C    3.992 --     2 C    1.912     6 C    1.053     7 H    0.956
     2   6 C    3.992 --     1 C    1.912     3 C    1.053     8 H    0.956
     3   6 C    3.992 --     2 C    1.053     9 H    0.973    10 H    0.966
                             4 C    0.933
     4   6 C    3.993 --     5 C    1.064    11 H    0.984    12 H    0.974
                             3 C    0.933
     5   6 C    3.993 --     4 C    1.064    14 H    0.984    13 H    0.974
                             6 C    0.933
     6   6 C    3.992 --     1 C    1.053    16 H    0.973    15 H    0.966
                             5 C    0.933
     7   1 H    0.999 --     1 C    0.956
     8   1 H    0.999 --     2 C    0.956
     9   1 H    0.999 --     3 C    0.973
    10   1 H    0.998 --     3 C    0.966
    11   1 H    0.999 --     4 C    0.984
    12   1 H    0.999 --     4 C    0.974
    13   1 H    0.999 --     5 C    0.974
    14   1 H    0.999 --     5 C    0.984
    15   1 H    0.998 --     6 C    0.966
    16   1 H    0.999 --     6 C    0.973
 ---------------------------------------------------------------------------

Topologies differ in total number of bonds
Writing topology from bond orders to xtbtopo.mol

molecular dipole:
                 x           y           z       tot (Debye)
 q only:        0.023      -0.081       0.012
   full:        0.025      -0.085       0.012       0.227
molecular quadrupole (traceless):
                xx          xy          yy          xz          yz          zz
 q only:        0.654       0.240      -0.203      -0.171      -0.077      -0.451
  q+dip:        1.429       0.420       0.064      -0.015      -0.218      -1.492
   full:        0.950       0.308      -0.038       0.001      -0.117      -0.912

           -------------------------------------------------
          |                Geometry Summary                 |
           -------------------------------------------------

      molecular mass/u    :       82.1438229
   center of mass at/Å    :       -0.0335288       0.1160251      -0.0170722
  moments of inertia/u·Å² :        0.1163205E+03   0.1282014E+03   0.2219586E+03
rotational constants/cm⁻¹ :        0.1449239E+00   0.1314933E+00   0.7594945E-01

 * 12 selected distances

     #   Z          #   Z                                           value/Å
     1   6 C        2   6 C                                       1.3250172
     4   6 C        5   6 C                                       1.4811247 (max)
     1   6 C        7   1 H                                       1.0860992
     2   6 C        8   1 H                                       1.0860975
     3   6 C        9   1 H                                       1.0841576
     3   6 C       10   1 H                                       1.0854519
     4   6 C       11   1 H                                       1.0823155 (min)
     4   6 C       12   1 H                                       1.0850901
     5   6 C       13   1 H                                       1.0851174
     5   6 C       14   1 H                                       1.0823817
     6   6 C       15   1 H                                       1.0855120
     6   6 C       16   1 H                                       1.0841126

 * 2 distinct bonds (by element types)

   Z      Z             #   av. dist./Å        max./Å        min./Å
   1 H    6 C          10     1.0846335     1.0860992     1.0823155
   6 C    6 C           2     1.4030710     1.4811247     1.3250172


optimized geometry written to: xtbopt.xyz


           -------------------------------------------------
          | TOTAL ENERGY              -17.844064327808 Eh   |
          | GRADIENT NORM               0.000696625340 Eh/α |
          | HOMO-LUMO GAP               4.900292228832 eV   |
           -------------------------------------------------

------------------------------------------------------------------------
 * finished run on 2025/05/23 at 11:05:32.178     
------------------------------------------------------------------------
 total:
 * wall-time:     0 d,  0 h,  0 min,  0.075 sec
 *  cpu-time:     0 d,  0 h,  0 min,  1.027 sec
 * ratio c/w:    13.780 speedup
 SCF:
 * wall-time:     0 d,  0 h,  0 min,  0.010 sec
 *  cpu-time:     0 d,  0 h,  0 min,  0.145 sec
 * ratio c/w:    15.219 speedup
 ANC optimizer:
 * wall-time:     0 d,  0 h,  0 min,  0.054 sec
 *  cpu-time:     0 d,  0 h,  0 min,  0.762 sec
 * ratio c/w:    13.985 speedup

