      -----------------------------------------------------------      
     |                   =====================                   |     
     |                           x T B                           |     
     |                   =====================                   |     
     |                         S. Grimme                         |     
     |          Mulliken Center for Theoretical Chemistry        |     
     |                    University of Bonn                     |     
      -----------------------------------------------------------      

   * xtb version 6.6.1 (8d0f1dd) compiled by 'conda@1efc2f54142f' on 2023-08-01

   xtb is free software: you can redistribute it and/or modify it under
   the terms of the GNU Lesser General Public License as published by
   the Free Software Foundation, either version 3 of the License, or
   (at your option) any later version.
   
   xtb is distributed in the hope that it will be useful,
   but WITHOUT ANY WARRANTY; without even the implied warranty of
   MERCHANTABILITY or FITNESS FOR A PARTICULAR PURPOSE.  See the
   GNU Lesser General Public License for more details.
   
   Cite this work as:
   * C. Bannwarth, E. Caldeweyher, S. Ehlert, A. Hansen, P. Pracht,
     J. Seibert, S. Spicher, S. Grimme, WIREs Comput. Mol. Sci., 2020, 11,
     e01493. DOI: 10.1002/wcms.1493
   
   for GFN2-xTB:
   * C. Bannwarth, S. Ehlert and S. Grimme., J. Chem. Theory Comput., 2019,
     15, 1652-1671. DOI: 10.1021/acs.jctc.8b01176
   for GFN1-xTB:
   * S. Grimme, C. Bannwarth, P. Shushkov, J. Chem. Theory Comput., 2017,
     13, 1989-2009. DOI: 10.1021/acs.jctc.7b00118
   for GFN0-xTB:
   * P. Pracht, E. Caldeweyher, S. Ehlert, S. Grimme, ChemRxiv, 2019, preprint.
     DOI: 10.26434/chemrxiv.8326202.v1
   for GFN-FF:
   * S. Spicher and S. Grimme, Angew. Chem. Int. Ed., 2020, 59, 15665-15673.
     DOI: 10.1002/anie.202004239
   
   for ALPB and GBSA implicit solvation:
   * S. Ehlert, M. Stahn, S. Spicher, S. Grimme, J. Chem. Theory Comput.,
     2021, 17, 4250-4261. DOI: 10.1021/acs.jctc.1c00471
   
   for DFT-D4:
   * E. Caldeweyher, C. Bannwarth and S. Grimme, J. Chem. Phys., 2017,
     147, 034112. DOI: 10.1063/1.4993215
   * E. Caldeweyher, S. Ehlert, A. Hansen, H. Neugebauer, S. Spicher,
     C. Bannwarth and S. Grimme, J. Chem. Phys., 2019, 150, 154122.
     DOI: 10.1063/1.5090222
   * E. Caldeweyher, J.-M. Mewes, S. Ehlert and S. Grimme, Phys. Chem. Chem. Phys.
     2020, 22, 8499-8512. DOI: 10.1039/D0CP00502A
   
   for sTDA-xTB:
   * S. Grimme and C. Bannwarth, J. Chem. Phys., 2016, 145, 054103.
     DOI: 10.1063/1.4959605
   
   in the mass-spec context:
   * V. Asgeirsson, C. Bauer and S. Grimme, Chem. Sci., 2017, 8, 4879.
     DOI: 10.1039/c7sc00601b
   * J. Koopman and S. Grimme, ACS Omega 2019, 4, 12, 15120-15133.
     DOI: 10.1021/acsomega.9b02011
   
   for metadynamics refer to:
   * S. Grimme, J. Chem. Theory Comput., 2019, 155, 2847-2862
     DOI: 10.1021/acs.jctc.9b00143
   
   for SPH calculations refer to:
   * S. Spicher and S. Grimme, J. Chem. Theory Comput., 2021, 17, 1701-1714
     DOI: 10.1021/acs.jctc.0c01306
   
   with help from (in alphabetical order)
   P. Atkinson, C. Bannwarth, F. Bohle, G. Brandenburg, E. Caldeweyher
   M. Checinski, S. Dohm, S. Ehlert, S. Ehrlich, I. Gerasimov, C. Hölzer
   A. Katbashev, J. Koopman, C. Lavigne, S. Lehtola, F. März, M. Müller,
   F. Musil, H. Neugebauer, J. Pisarek, C. Plett, P. Pracht, F. Pultar,
   J. Seibert, P. Shushkov, S. Spicher, M. Stahn, M. Steiner, T. Strunk,
   J. Stückrath, T. Rose, and J. Unsleber
   
 * started run on 2025/05/23 at 11:05:30.200     

           -------------------------------------------------
          |                Calculation Setup                |
           -------------------------------------------------

          program call               : /gpfs/fs1/home/copan/code/autode-practice/.pixi/envs/default/bin/xtb path_opt-1_xtb.xyz --chrg 0 --uhf 0 --opt --input xcontrol_path_opt-1_xtb
          hostname                   : beboplogin4.lcrc.anl.gov
          coordinate file            : path_opt-1_xtb.xyz
          omp threads                :                     8

   ID    Z sym.   atoms
    1    6 C      1-6
    2    1 H      7-16
constraining bond 3 4 to    1.5259000 Å, actual value:    1.5258969 Å
constraining bond 5 6 to    1.5257000 Å, actual value:    1.5256705 Å

           -------------------------------------------------
          |                 G F N 2 - x T B                 |
           -------------------------------------------------

        Reference                      10.1021/acs.jctc.8b01176
      * Hamiltonian:
        H0-scaling (s, p, d)           1.850000    2.230000    2.230000
        zeta-weighting                 0.500000
      * Dispersion:
        s8                             2.700000
        a1                             0.520000
        a2                             5.000000
        s9                             5.000000
      * Repulsion:
        kExp                           1.500000    1.000000
        rExp                           1.000000
      * Coulomb:
        alpha                          2.000000
        third order                    shell-resolved
        anisotropic                    true
        a3                             3.000000
        a5                             4.000000
        cn-shift                       1.200000
        cn-exp                         4.000000
        max-rad                        5.000000


          ...................................................
          :                      SETUP                      :
          :.................................................:
          :  # basis functions                  34          :
          :  # atomic orbitals                  34          :
          :  # shells                           22          :
          :  # electrons                        34          :
          :  max. iterations                   250          :
          :  Hamiltonian                  GFN2-xTB          :
          :  restarted?                      false          :
          :  GBSA solvation                  false          :
          :  PC potential                    false          :
          :  electronic temp.          300.0000000     K    :
          :  accuracy                    1.0000000          :
          :  -> integral cutoff          0.2500000E+02      :
          :  -> integral neglect         0.1000000E-07      :
          :  -> SCF convergence          0.1000000E-05 Eh   :
          :  -> wf. convergence          0.1000000E-03 e    :
          :  Broyden damping             0.4000000          :
          ...................................................

 iter      E             dE          RMSdq      gap      omega  full diag
   1    -18.1656100 -0.181656E+02  0.327E+00    5.17       0.0  T
   2    -18.2033892 -0.377792E-01  0.189E+00    5.10       1.0  T
   3    -18.2039137 -0.524514E-03  0.779E-01    5.05       1.0  T
   4    -18.2040267 -0.113017E-03  0.795E-02    5.05       1.0  T
   5    -18.2040325 -0.581335E-05  0.433E-02    5.05       1.0  T
   6    -18.2040326 -0.125145E-06  0.530E-03    5.05       4.7  T
   7    -18.2040328 -0.195940E-06  0.266E-03    5.05       9.4  T
   8    -18.2040329 -0.448776E-07  0.133E-03    5.05      18.8  T
   9    -18.2040329 -0.922235E-08  0.173E-04    5.05     144.4  T
  10    -18.2040329 -0.129958E-10  0.624E-05    5.05     400.5  T

   *** convergence criteria satisfied after 10 iterations ***

         #    Occupation            Energy/Eh            Energy/eV
      -------------------------------------------------------------
         1        2.0000           -0.6286971             -17.1077
       ...           ...                  ...                  ...
        11        2.0000           -0.4662396             -12.6870
        12        2.0000           -0.4637693             -12.6198
        13        2.0000           -0.4589244             -12.4880
        14        2.0000           -0.4244225             -11.5491
        15        2.0000           -0.4172756             -11.3546
        16        2.0000           -0.4095425             -11.1442
        17        2.0000           -0.3786311             -10.3031 (HOMO)
        18                         -0.1929040              -5.2492 (LUMO)
        19                          0.0883915               2.4053
        20                          0.0950506               2.5865
        21                          0.0964616               2.6249
        22                          0.1098920               2.9903
       ...                                ...                  ...
        34                          0.5943929              16.1743
      -------------------------------------------------------------
                  HL-Gap            0.1857271 Eh            5.0539 eV
             Fermi-level           -0.2857676 Eh           -7.7761 eV

 SCC (total)                   0 d,  0 h,  0 min,  0.010 sec
 SCC setup                      ...        0 min,  0.000 sec (  3.737%)
 Dispersion                     ...        0 min,  0.000 sec (  1.607%)
 classical contributions        ...        0 min,  0.000 sec (  1.696%)
 integral evaluation            ...        0 min,  0.001 sec (  5.735%)
 iterations                     ...        0 min,  0.007 sec ( 72.420%)
 molecular gradient             ...        0 min,  0.001 sec ( 11.329%)
 printout                       ...        0 min,  0.000 sec (  3.229%)

         :::::::::::::::::::::::::::::::::::::::::::::::::::::
         ::                     SUMMARY                     ::
         :::::::::::::::::::::::::::::::::::::::::::::::::::::
         :: total energy             -17.929872131039 Eh    ::
         :: gradient norm              0.035200217394 Eh/a0 ::
         :: HOMO-LUMO gap              5.053891243564 eV    ::
         ::.................................................::
         :: SCC energy               -18.204032899320 Eh    ::
         :: -> isotropic ES            0.002083122451 Eh    ::
         :: -> anisotropic ES          0.004947720726 Eh    ::
         :: -> anisotropic XC          0.011874315480 Eh    ::
         :: -> dispersion             -0.010040522323 Eh    ::
         :: repulsion energy           0.274139626307 Eh    ::
         :: add. restraining           0.000000006301 Eh    ::
         :: total charge              -0.000000000000 e     ::
         :::::::::::::::::::::::::::::::::::::::::::::::::::::

      ----------------------------------------------------------- 
     |                   =====================                   |
     |                        A N C O P T                        |
     |                   =====================                   |
     |               Approximate Normal Coordinate               |
     |                Rational Function Optimizer                |
      ----------------------------------------------------------- 

          ...................................................
          :                      SETUP                      :
          :.................................................:
          :   optimization level            normal          :
          :   max. optcycles                   200          :
          :   ANC micro-cycles                  20          :
          :   degrees of freedom                42          :
          :.................................................:
          :   RF solver                   davidson          :
          :   write xtbopt.log                true          :
          :   linear?                        false          :
          :   energy convergence         0.5000000E-05 Eh   :
          :   grad. convergence          0.1000000E-02 Eh/α :
          :   maxmium RF displ.          1.0000000          :
          :   Hlow (freq-cutoff)         0.1000000E-01      :
          :   Hmax (freq-cutoff)         5.0000000          :
          :   S6 in model hess.         20.0000000          :
          ...................................................

generating ANC from model Hessian ...
Using Lindh-Hessian (1995)
 Shifting diagonal of input Hessian by    1.3623033492211351E-003
 Lowest  eigenvalues of input Hessian
    0.000000    0.000000    0.000000    0.000000    0.000000    0.000000
    0.010000    0.011273    0.018603    0.020233    0.033962    0.035043
    0.050230    0.052541    0.053167    0.057534    0.057994    0.060430
 Highest eigenvalues
    1.164883    1.213078    1.430124    1.835611    9.131741    9.146324


........................................................................
.............................. CYCLE    1 ..............................
........................................................................

 iter      E             dE          RMSdq      gap      omega  full diag
   1    -18.2040329 -0.182040E+02  0.543E-06    5.05       0.0  T
   2    -18.2040329  0.248690E-13  0.327E-06    5.05    7652.9  T
   3    -18.2040329 -0.355271E-13  0.831E-07    5.05   30073.7  T
     SCC iter.                  ...        0 min,  0.002 sec
     gradient                   ...        0 min,  0.001 sec
 * total energy  :   -17.9298721 Eh     change       -0.1048406E-10 Eh
   gradient norm :     0.0351998 Eh/α   predicted     0.0000000E+00 (-100.00%)
   displ. norm   :     0.1384220 α      lambda       -0.2298192E-02
   maximum displ.:     0.0693811 α      in ANC's #16, #2, #4, ...

........................................................................
.............................. CYCLE    2 ..............................
........................................................................

 iter      E             dE          RMSdq      gap      omega  full diag
   1    -18.2205777 -0.182206E+02  0.135E-01    5.21       0.0  T
   2    -18.2205927 -0.149190E-04  0.761E-02    5.21       1.0  T
   3    -18.2205928 -0.169410E-06  0.174E-02    5.21       1.4  T
   4    -18.2205932 -0.408192E-06  0.225E-03    5.21      11.1  T
   5    -18.2205932 -0.705931E-08  0.129E-03    5.21      19.3  T
   6    -18.2205932 -0.530349E-10  0.757E-04    5.21      33.0  T
   7    -18.2205933 -0.502750E-08  0.156E-04    5.21     160.6  T
     SCC iter.                  ...        0 min,  0.003 sec
     gradient                   ...        0 min,  0.001 sec
 * total energy  :   -17.9312546 Eh     change       -0.1382428E-02 Eh
   gradient norm :     0.0118440 Eh/α   predicted    -0.1171116E-02 ( -15.29%)
   displ. norm   :     0.0673692 α      lambda       -0.2752958E-03
   maximum displ.:     0.0418504 α      in ANC's #2, #4, #16, ...

........................................................................
.............................. CYCLE    3 ..............................
........................................................................

 iter      E             dE          RMSdq      gap      omega  full diag
   1    -18.2257803 -0.182258E+02  0.509E-02    5.24       0.0  T
   2    -18.2257833 -0.297998E-05  0.284E-02    5.24       1.0  T
   3    -18.2257833 -0.473486E-07  0.763E-03    5.24       3.3  T
   4    -18.2257834 -0.516963E-07  0.863E-04    5.24      29.0  T
   5    -18.2257834 -0.136085E-08  0.441E-04    5.24      56.8  T
     SCC iter.                  ...        0 min,  0.003 sec
     gradient                   ...        0 min,  0.001 sec
 * total energy  :   -17.9314016 Eh     change       -0.1470841E-03 Eh
   gradient norm :     0.0067327 Eh/α   predicted    -0.1382738E-03 (  -5.99%)
   displ. norm   :     0.0478460 α      lambda       -0.4734887E-04
   maximum displ.:     0.0329428 α      in ANC's #4, #2, #16, ...

........................................................................
.............................. CYCLE    4 ..............................
........................................................................

 iter      E             dE          RMSdq      gap      omega  full diag
   1    -18.2257714 -0.182258E+02  0.183E-02    5.24       0.0  T
   2    -18.2257716 -0.140029E-06  0.108E-02    5.24       2.3  T
   3    -18.2257716 -0.361910E-08  0.140E-03    5.24      17.8  T
   4    -18.2257716 -0.574034E-08  0.333E-04    5.24      75.1  T
   5    -18.2257716 -0.156842E-09  0.139E-04    5.24     179.5  T
     SCC iter.                  ...        0 min,  0.003 sec
     gradient                   ...        0 min,  0.001 sec
 * total energy  :   -17.9314282 Eh     change       -0.2654652E-04 Eh
   gradient norm :     0.0053870 Eh/α   predicted    -0.2372920E-04 ( -10.61%)
   displ. norm   :     0.0328759 α      lambda       -0.1592577E-04
   maximum displ.:     0.0232855 α      in ANC's #2, #4, #20, ...

........................................................................
.............................. CYCLE    5 ..............................
........................................................................

 iter      E             dE          RMSdq      gap      omega  full diag
   1    -18.2250270 -0.182250E+02  0.114E-02    5.23       0.0  T
   2    -18.2250270 -0.209041E-07  0.673E-03    5.23       3.7  T
   3    -18.2250270 -0.282920E-08  0.520E-04    5.23      48.1  T
   4    -18.2250270 -0.426297E-09  0.270E-04    5.23      92.5  T
     SCC iter.                  ...        0 min,  0.002 sec
     gradient                   ...        0 min,  0.001 sec
 * total energy  :   -17.9314371 Eh     change       -0.8945910E-05 Eh
   gradient norm :     0.0008576 Eh/α   predicted    -0.7970410E-05 ( -10.90%)
   displ. norm   :     0.0144624 α      lambda       -0.1891370E-05
   maximum displ.:     0.0104506 α      in ANC's #2, #4, #15, ...

........................................................................
.............................. CYCLE    6 ..............................
........................................................................

 iter      E             dE          RMSdq      gap      omega  full diag
   1    -18.2247886 -0.182248E+02  0.744E-03    5.23       0.0  T
   2    -18.2247886 -0.145581E-07  0.435E-03    5.23       5.7  T
   3    -18.2247886  0.129972E-08  0.557E-04    5.23      44.9  T
   4    -18.2247886 -0.120472E-08  0.313E-04    5.23      79.8  T
     SCC iter.                  ...        0 min,  0.002 sec
     gradient                   ...        0 min,  0.001 sec
 * total energy  :   -17.9314383 Eh     change       -0.1175828E-05 Eh
   gradient norm :     0.0003738 Eh/α   predicted    -0.9459553E-06 ( -19.55%)
   displ. norm   :     0.0025620 α      lambda       -0.3387706E-06
   maximum displ.:     0.0013293 α      in ANC's #4, #20, #15, ...

   *** GEOMETRY OPTIMIZATION CONVERGED AFTER 6 ITERATIONS ***

------------------------------------------------------------------------
 total energy gain   :        -0.0015662 Eh       -0.9828 kcal/mol
 total RMSD          :         0.0669646 a0        0.0354 Å
 total power (kW/mol):        -0.6853342 (step) -116.2159 (real)
------------------------------------------------------------------------

 ANCopt (total)                0 d,  0 h,  0 min,  0.035 sec
 optimizer setup                ...        0 min,  0.000 sec (  0.567%)
 model hessian                  ...        0 min,  0.008 sec ( 23.382%)
 ANC generation                 ...        0 min,  0.000 sec (  1.317%)
 coordinate transformation      ...        0 min,  0.000 sec (  0.093%)
 single point calculation       ...        0 min,  0.023 sec ( 66.268%)
 optimization log               ...        0 min,  0.001 sec (  2.741%)
 hessian update                 ...        0 min,  0.000 sec (  0.208%)
 rational function              ...        0 min,  0.001 sec (  2.637%)

================
 final structure:
================
16
 xtb: 6.6.1 (8d0f1dd)
C            0.24749328274349        1.48577882497465       -0.31523657319996
C           -1.01068805667605        1.15808109353079       -0.07478825481169
C           -1.45462590431000       -0.23488041472015        0.25303996738537
C           -0.27311452644501       -1.11491066417022        0.65066905573384
C            0.86460324172537       -0.93379672933203       -0.34846516007001
C            1.37745150516101        0.50210501069613       -0.29242539503452
H            0.51574728050507        2.51076971922665       -0.53397345828734
H           -1.79080916289539        1.90640387657809       -0.11767567761740
H           -2.19191563468786       -0.20330702718910        1.05980423140559
H           -1.95712591651568       -0.66045270695466       -0.62279827113109
H            0.07508057974236       -0.82697928319771        1.64507877866092
H           -0.58253755683992       -2.16138208200820        0.69151447634694
H            1.67721701266159       -1.63053457002412       -0.13225192061655
H            0.49507454703804       -1.14800502145617       -1.35373921732759
H            1.95894823010990        0.65385830301401        0.62385060050707
H            2.04930107868311        0.69754167103203       -1.13260318194359

 Bond Distances (Angstroems)
 ---------------------------
C1-C2=1.3222         C1-C6=1.4983         C1-H7=1.0819         C2-C1=1.3222         C2-C3=1.4983         C2-H8=1.0819         
C3-C2=1.4983         C3-C4=1.5260         C3-H9=1.0934         C3-H10=1.0958        C4-C3=1.5260         C4-C5=1.5250         
C4-H11=1.0922        C4-H12=1.0920        C5-C4=1.5250         C5-C6=1.5258         C5-H13=1.0920        C5-H14=1.0923        
C6-C1=1.4983         C6-C5=1.5258         C6-H15=1.0958        C6-H16=1.0934        H7-C1=1.0819         H8-C2=1.0819         
H9-C3=1.0934         H10-C3=1.0958        H11-C4=1.0922        H12-C4=1.0920        H13-C5=1.0920        H14-C5=1.0923        
H15-C6=1.0958        H16-C6=1.0934        
 C  H  Rav=1.0911 sigma=0.0048  Rmin=1.0819  Rmax=1.0958    10
 C  C  Rav=1.4826 sigma=0.0728  Rmin=1.3222  Rmax=1.5260     6

 selected bond angles (degree)
 --------------------
C6-C1-C2=123.51                H7-C1-C2=120.50                H7-C1-C6=115.98                C3-C2-C1=123.52                
H8-C2-C1=120.50                H8-C2-C3=115.98                C4-C3-C2=111.33                H9-C3-C2=109.54                
H9-C3-C4=110.27                H10-C3-C2=108.79               H10-C3-C4=109.84               H10-C3-H9=106.96               
C5-C4-C3=109.78                H11-C4-C3=109.39               H11-C4-C5=109.11               H12-C4-C3=110.06               
H12-C4-C5=110.47               H12-C4-H11=107.99              C6-C5-C4=109.78                H13-C5-C4=110.47               
H13-C5-C6=110.06               H14-C5-C4=109.11               H14-C5-C6=109.40               H14-C5-H13=107.99              
C5-C6-C1=111.33                H15-C6-C1=108.78               H15-C6-C5=109.84               H16-C6-C1=109.53               
H16-C6-C5=110.28               H16-C6-H15=106.96              

 selected dihedral angles (degree)
 ---------------------------------
C3-C2-C1-C6=  0.19            C3-C2-C1-H7=180.85            H8-C2-C1-C6=180.85            H8-C2-C1-H7=  1.51            
C4-C3-C2-C1= 15.79            C4-C3-C2-H8=195.16            H9-C3-C2-C1=138.02            H9-C3-C2-H8=317.39            
H10-C3-C2-C1=254.61           H10-C3-C2-H8= 73.98           C5-C4-C3-C2=313.01            C5-C4-C3-H9=191.21            
C5-C4-C3-H10= 73.57           H11-C4-C3-C2= 72.71           H11-C4-C3-H9=310.91           H11-C4-C3-H10=193.27          
H12-C4-C3-C2=191.21           H12-C4-C3-H9= 69.41           H12-C4-C3-H10=311.77          C6-C5-C4-C3= 64.05            
C6-C5-C4-H11=304.18           C6-C5-C4-H12=185.61           H13-C5-C4-C3=185.61           H13-C5-C4-H11= 65.74          
H13-C5-C4-H12=307.17          H14-C5-C4-C3=304.17           H14-C5-C4-H11=184.30          H14-C5-C4-H12= 65.73          
C5-C6-C1-C2= 15.79            C5-C6-C1-H7=195.16            H15-C6-C1-C2=254.61           H15-C6-C1-H7= 73.98           
H16-C6-C1-C2=138.02           H16-C6-C1-H7=317.39           C1-C6-C5-C4=313.01            C1-C6-C5-H13=191.20           
C1-C6-C5-H14= 72.70           H15-C6-C5-C4= 73.57           H15-C6-C5-H13=311.77          H15-C6-C5-H14=193.27          
H16-C6-C5-C4=191.21           H16-C6-C5-H13= 69.41          H16-C6-C5-H14=310.90          
           -------------------------------------------------
          |                Final Singlepoint                |
           -------------------------------------------------

          ...................................................
          :                      SETUP                      :
          :.................................................:
          :  # basis functions                  34          :
          :  # atomic orbitals                  34          :
          :  # shells                           22          :
          :  # electrons                        34          :
          :  max. iterations                   250          :
          :  Hamiltonian                  GFN2-xTB          :
          :  restarted?                      false          :
          :  GBSA solvation                  false          :
          :  PC potential                    false          :
          :  electronic temp.          300.0000000     K    :
          :  accuracy                    1.0000000          :
          :  -> integral cutoff          0.2500000E+02      :
          :  -> integral neglect         0.1000000E-07      :
          :  -> SCF convergence          0.1000000E-05 Eh   :
          :  -> wf. convergence          0.1000000E-03 e    :
          :  Broyden damping             0.4000000          :
          ...................................................

 iter      E             dE          RMSdq      gap      omega  full diag
   1    -18.2247886 -0.182248E+02  0.676E-05    5.23       0.0  T
   2    -18.2247886 -0.260059E-11  0.397E-05    5.23     630.1  T
   3    -18.2247886  0.268585E-11  0.285E-05    5.23     876.3  T

   *** convergence criteria satisfied after 3 iterations ***

         #    Occupation            Energy/Eh            Energy/eV
      -------------------------------------------------------------
         1        2.0000           -0.6302424             -17.1498
       ...           ...                  ...                  ...
        11        2.0000           -0.4659535             -12.6792
        12        2.0000           -0.4637857             -12.6203
        13        2.0000           -0.4593201             -12.4987
        14        2.0000           -0.4267765             -11.6132
        15        2.0000           -0.4166074             -11.3365
        16        2.0000           -0.4073635             -11.0849
        17        2.0000           -0.3807088             -10.3596 (HOMO)
        18                         -0.1883503              -5.1253 (LUMO)
        19                          0.0981210               2.6700
        20                          0.1028432               2.7985
        21                          0.1096541               2.9838
        22                          0.1232801               3.3546
       ...                                ...                  ...
        34                          0.6419084              17.4672
      -------------------------------------------------------------
                  HL-Gap            0.1923584 Eh            5.2343 eV
             Fermi-level           -0.2845295 Eh           -7.7424 eV

 SCC (total)                   0 d,  0 h,  0 min,  0.004 sec
 SCC setup                      ...        0 min,  0.000 sec (  5.196%)
 Dispersion                     ...        0 min,  0.000 sec (  1.606%)
 classical contributions        ...        0 min,  0.000 sec (  0.576%)
 integral evaluation            ...        0 min,  0.000 sec (  8.596%)
 iterations                     ...        0 min,  0.002 sec ( 51.024%)
 molecular gradient             ...        0 min,  0.001 sec ( 24.984%)
 printout                       ...        0 min,  0.000 sec (  7.460%)

         :::::::::::::::::::::::::::::::::::::::::::::::::::::
         ::                     SUMMARY                     ::
         :::::::::::::::::::::::::::::::::::::::::::::::::::::
         :: total energy             -17.931438312248 Eh    ::
         :: gradient norm              0.000373742265 Eh/a0 ::
         :: HOMO-LUMO gap              5.234339532282 eV    ::
         ::.................................................::
         :: SCC energy               -18.224788627285 Eh    ::
         :: -> isotropic ES            0.002326308418 Eh    ::
         :: -> anisotropic ES          0.004504204810 Eh    ::
         :: -> anisotropic XC          0.011489393959 Eh    ::
         :: -> dispersion             -0.010085111419 Eh    ::
         :: repulsion energy           0.293330135664 Eh    ::
         :: add. restraining           0.000000052890 Eh    ::
         :: total charge              -0.000000000000 e     ::
         :::::::::::::::::::::::::::::::::::::::::::::::::::::

           -------------------------------------------------
          |                Property Printout                |
           -------------------------------------------------

    * Orbital Energies and Occupations

         #    Occupation            Energy/Eh            Energy/eV
      -------------------------------------------------------------
         1        2.0000           -0.6302424             -17.1498
       ...           ...                  ...                  ...
         5        2.0000           -0.5639177             -15.3450
         6        2.0000           -0.5292205             -14.4008
         7        2.0000           -0.5214532             -14.1895
         8        2.0000           -0.4939272             -13.4404
         9        2.0000           -0.4910389             -13.3618
        10        2.0000           -0.4720551             -12.8453
        11        2.0000           -0.4659535             -12.6792
        12        2.0000           -0.4637857             -12.6203
        13        2.0000           -0.4593201             -12.4987
        14        2.0000           -0.4267765             -11.6132
        15        2.0000           -0.4166074             -11.3365
        16        2.0000           -0.4073635             -11.0849
        17        2.0000           -0.3807088             -10.3596 (HOMO)
        18                         -0.1883503              -5.1253 (LUMO)
        19                          0.0981210               2.6700
        20                          0.1028432               2.7985
        21                          0.1096541               2.9838
        22                          0.1232801               3.3546
        23                          0.1259005               3.4259
        24                          0.1467403               3.9930
        25                          0.1567461               4.2653
        26                          0.1926675               5.2427
        27                          0.1968636               5.3569
        28                          0.2366034               6.4383
       ...                                ...                  ...
        34                          0.6419084              17.4672
      -------------------------------------------------------------
                  HL-Gap            0.1923584 Eh            5.2343 eV
             Fermi-level           -0.2845295 Eh           -7.7424 eV

     #   Z          covCN         q      C6AA      α(0)
     1   6 C        2.892    -0.041    29.020     8.832
     2   6 C        2.892    -0.041    29.020     8.832
     3   6 C        3.809    -0.053    21.518     6.603
     4   6 C        3.807    -0.054    21.535     6.606
     5   6 C        3.807    -0.054    21.535     6.606
     6   6 C        3.809    -0.053    21.517     6.603
     7   1 H        0.925     0.021     2.723     2.581
     8   1 H        0.925     0.021     2.723     2.581
     9   1 H        0.924     0.033     2.548     2.496
    10   1 H        0.924     0.037     2.490     2.468
    11   1 H        0.924     0.032     2.552     2.498
    12   1 H        0.924     0.025     2.658     2.549
    13   1 H        0.924     0.025     2.658     2.549
    14   1 H        0.924     0.032     2.552     2.498
    15   1 H        0.924     0.037     2.490     2.468
    16   1 H        0.924     0.033     2.548     2.496

 Mol. C6AA /au·bohr⁶  :       2058.091053
 Mol. C8AA /au·bohr⁸  :      45542.461694
 Mol. α(0) /au        :         69.266952


Wiberg/Mayer (AO) data.
largest (>0.10) Wiberg bond orders for each atom

 ---------------------------------------------------------------------------
     #   Z sym  total        # sym  WBO       # sym  WBO       # sym  WBO
 ---------------------------------------------------------------------------
     1   6 C    3.991 --     2 C    1.929     6 C    1.024     7 H    0.968
     2   6 C    3.991 --     1 C    1.929     3 C    1.024     8 H    0.968
     3   6 C    3.999 --     2 C    1.024     4 C    1.007     9 H    0.968
                            10 H    0.959
     4   6 C    3.999 --     5 C    1.009     3 C    1.007    12 H    0.979
                            11 H    0.979
     5   6 C    3.999 --     4 C    1.009     6 C    1.007    13 H    0.979
                            14 H    0.979
     6   6 C    3.999 --     1 C    1.024     5 C    1.007    16 H    0.968
                            15 H    0.959
     7   1 H    1.000 --     1 C    0.968
     8   1 H    1.000 --     2 C    0.968
     9   1 H    0.999 --     3 C    0.968
    10   1 H    0.999 --     3 C    0.959
    11   1 H    0.999 --     4 C    0.979
    12   1 H    0.999 --     4 C    0.979
    13   1 H    0.999 --     5 C    0.979
    14   1 H    0.999 --     5 C    0.979
    15   1 H    0.999 --     6 C    0.959
    16   1 H    0.999 --     6 C    0.968
 ---------------------------------------------------------------------------

Topologies differ in total number of bonds
Writing topology from bond orders to xtbtopo.mol

molecular dipole:
                 x           y           z       tot (Debye)
 q only:        0.035      -0.122       0.018
   full:        0.036      -0.124       0.018       0.331
molecular quadrupole (traceless):
                xx          xy          yy          xz          yz          zz
 q only:        0.736       0.324      -0.380      -0.159      -0.029      -0.356
  q+dip:        1.415       0.624      -0.630      -0.114      -0.030      -0.785
   full:        0.983       0.476      -0.566      -0.076       0.021      -0.417

           -------------------------------------------------
          |                Geometry Summary                 |
           -------------------------------------------------

      molecular mass/u    :       82.1438229
   center of mass at/Å    :       -0.0333352       0.1155151      -0.0170387
  moments of inertia/u·Å² :        0.1050938E+03   0.1096421E+03   0.1939279E+03
rotational constants/cm⁻¹ :        0.1604056E+00   0.1537514E+00   0.8692731E-01

 * 14 selected distances

     #   Z          #   Z                                           value/Å
     1   6 C        2   6 C                                       1.3222034
     3   6 C        4   6 C                                       1.5259527 (max)
     4   6 C        5   6 C                                       1.5249504
     5   6 C        6   6 C                                       1.5257680
     1   6 C        7   1 H                                       1.0818561 (min)
     2   6 C        8   1 H                                       1.0818574
     3   6 C        9   1 H                                       1.0933718
     3   6 C       10   1 H                                       1.0957695
     4   6 C       11   1 H                                       1.0922432
     4   6 C       12   1 H                                       1.0920227
     5   6 C       13   1 H                                       1.0920317
     5   6 C       14   1 H                                       1.0922513
     6   6 C       15   1 H                                       1.0957780
     6   6 C       16   1 H                                       1.0933784

 * 2 distinct bonds (by element types)

   Z      Z             #   av. dist./Å        max./Å        min./Å
   1 H    6 C          10     1.0910560     1.0957780     1.0818561
   6 C    6 C           4     1.4747186     1.5259527     1.3222034


optimized geometry written to: xtbopt.xyz


           -------------------------------------------------
          | TOTAL ENERGY              -17.931438312248 Eh   |
          | GRADIENT NORM               0.000373742265 Eh/α |
          | HOMO-LUMO GAP               5.234339532282 eV   |
           -------------------------------------------------

------------------------------------------------------------------------
 * finished run on 2025/05/23 at 11:05:30.262     
------------------------------------------------------------------------
 total:
 * wall-time:     0 d,  0 h,  0 min,  0.062 sec
 *  cpu-time:     0 d,  0 h,  0 min,  0.821 sec
 * ratio c/w:    13.253 speedup
 SCF:
 * wall-time:     0 d,  0 h,  0 min,  0.010 sec
 *  cpu-time:     0 d,  0 h,  0 min,  0.148 sec
 * ratio c/w:    14.871 speedup
 ANC optimizer:
 * wall-time:     0 d,  0 h,  0 min,  0.040 sec
 *  cpu-time:     0 d,  0 h,  0 min,  0.542 sec
 * ratio c/w:    13.397 speedup

