      -----------------------------------------------------------      
     |                   =====================                   |     
     |                           x T B                           |     
     |                   =====================                   |     
     |                         S. Grimme                         |     
     |          Mulliken Center for Theoretical Chemistry        |     
     |                    University of Bonn                     |     
      -----------------------------------------------------------      

   * xtb version 6.6.1 (8d0f1dd) compiled by 'conda@1efc2f54142f' on 2023-08-01

   xtb is free software: you can redistribute it and/or modify it under
   the terms of the GNU Lesser General Public License as published by
   the Free Software Foundation, either version 3 of the License, or
   (at your option) any later version.
   
   xtb is distributed in the hope that it will be useful,
   but WITHOUT ANY WARRANTY; without even the implied warranty of
   MERCHANTABILITY or FITNESS FOR A PARTICULAR PURPOSE.  See the
   GNU Lesser General Public License for more details.
   
   Cite this work as:
   * C. Bannwarth, E. Caldeweyher, S. Ehlert, A. Hansen, P. Pracht,
     J. Seibert, S. Spicher, S. Grimme, WIREs Comput. Mol. Sci., 2020, 11,
     e01493. DOI: 10.1002/wcms.1493
   
   for GFN2-xTB:
   * C. Bannwarth, S. Ehlert and S. Grimme., J. Chem. Theory Comput., 2019,
     15, 1652-1671. DOI: 10.1021/acs.jctc.8b01176
   for GFN1-xTB:
   * S. Grimme, C. Bannwarth, P. Shushkov, J. Chem. Theory Comput., 2017,
     13, 1989-2009. DOI: 10.1021/acs.jctc.7b00118
   for GFN0-xTB:
   * P. Pracht, E. Caldeweyher, S. Ehlert, S. Grimme, ChemRxiv, 2019, preprint.
     DOI: 10.26434/chemrxiv.8326202.v1
   for GFN-FF:
   * S. Spicher and S. Grimme, Angew. Chem. Int. Ed., 2020, 59, 15665-15673.
     DOI: 10.1002/anie.202004239
   
   for ALPB and GBSA implicit solvation:
   * S. Ehlert, M. Stahn, S. Spicher, S. Grimme, J. Chem. Theory Comput.,
     2021, 17, 4250-4261. DOI: 10.1021/acs.jctc.1c00471
   
   for DFT-D4:
   * E. Caldeweyher, C. Bannwarth and S. Grimme, J. Chem. Phys., 2017,
     147, 034112. DOI: 10.1063/1.4993215
   * E. Caldeweyher, S. Ehlert, A. Hansen, H. Neugebauer, S. Spicher,
     C. Bannwarth and S. Grimme, J. Chem. Phys., 2019, 150, 154122.
     DOI: 10.1063/1.5090222
   * E. Caldeweyher, J.-M. Mewes, S. Ehlert and S. Grimme, Phys. Chem. Chem. Phys.
     2020, 22, 8499-8512. DOI: 10.1039/D0CP00502A
   
   for sTDA-xTB:
   * S. Grimme and C. Bannwarth, J. Chem. Phys., 2016, 145, 054103.
     DOI: 10.1063/1.4959605
   
   in the mass-spec context:
   * V. Asgeirsson, C. Bauer and S. Grimme, Chem. Sci., 2017, 8, 4879.
     DOI: 10.1039/c7sc00601b
   * J. Koopman and S. Grimme, ACS Omega 2019, 4, 12, 15120-15133.
     DOI: 10.1021/acsomega.9b02011
   
   for metadynamics refer to:
   * S. Grimme, J. Chem. Theory Comput., 2019, 155, 2847-2862
     DOI: 10.1021/acs.jctc.9b00143
   
   for SPH calculations refer to:
   * S. Spicher and S. Grimme, J. Chem. Theory Comput., 2021, 17, 1701-1714
     DOI: 10.1021/acs.jctc.0c01306
   
   with help from (in alphabetical order)
   P. Atkinson, C. Bannwarth, F. Bohle, G. Brandenburg, E. Caldeweyher
   M. Checinski, S. Dohm, S. Ehlert, S. Ehrlich, I. Gerasimov, C. Hölzer
   A. Katbashev, J. Koopman, C. Lavigne, S. Lehtola, F. März, M. Müller,
   F. Musil, H. Neugebauer, J. Pisarek, C. Plett, P. Pracht, F. Pultar,
   J. Seibert, P. Shushkov, S. Spicher, M. Stahn, M. Steiner, T. Strunk,
   J. Stückrath, T. Rose, and J. Unsleber
   
 * started run on 2025/05/23 at 11:05:33.347     

           -------------------------------------------------
          |                Calculation Setup                |
           -------------------------------------------------

          program call               : /gpfs/fs1/home/copan/code/autode-practice/.pixi/envs/default/bin/xtb path_opt10_xtb.xyz --chrg 0 --uhf 0 --opt --input xcontrol_path_opt10_xtb
          hostname                   : beboplogin4.lcrc.anl.gov
          coordinate file            : path_opt10_xtb.xyz
          omp threads                :                     8

   ID    Z sym.   atoms
    1    6 C      1-6
    2    1 H      7-16
constraining bond 3 4 to    2.1204000 Å, actual value:    2.0703485 Å
constraining bond 5 6 to    2.1202000 Å, actual value:    2.0702335 Å

molecular fragmentation (1/2 indicates fragments):
1112211111222211
# atoms in fragment 1/2:    10     6
 fragment masses (1/2) :       54.09       28.05
CMA distance (Bohr)    :   4.531
constraining FC (au)   :  2.0000

           -------------------------------------------------
          |                 G F N 2 - x T B                 |
           -------------------------------------------------

        Reference                      10.1021/acs.jctc.8b01176
      * Hamiltonian:
        H0-scaling (s, p, d)           1.850000    2.230000    2.230000
        zeta-weighting                 0.500000
      * Dispersion:
        s8                             2.700000
        a1                             0.520000
        a2                             5.000000
        s9                             5.000000
      * Repulsion:
        kExp                           1.500000    1.000000
        rExp                           1.000000
      * Coulomb:
        alpha                          2.000000
        third order                    shell-resolved
        anisotropic                    true
        a3                             3.000000
        a5                             4.000000
        cn-shift                       1.200000
        cn-exp                         4.000000
        max-rad                        5.000000


          ...................................................
          :                      SETUP                      :
          :.................................................:
          :  # basis functions                  34          :
          :  # atomic orbitals                  34          :
          :  # shells                           22          :
          :  # electrons                        34          :
          :  max. iterations                   250          :
          :  Hamiltonian                  GFN2-xTB          :
          :  restarted?                      false          :
          :  GBSA solvation                  false          :
          :  PC potential                    false          :
          :  electronic temp.          300.0000000     K    :
          :  accuracy                    1.0000000          :
          :  -> integral cutoff          0.2500000E+02      :
          :  -> integral neglect         0.1000000E-07      :
          :  -> SCF convergence          0.1000000E-05 Eh   :
          :  -> wf. convergence          0.1000000E-03 e    :
          :  Broyden damping             0.4000000          :
          ...................................................

 iter      E             dE          RMSdq      gap      omega  full diag
   1    -18.0571206 -0.180571E+02  0.330E+00    3.82       0.0  T
   2    -18.0835828 -0.264622E-01  0.186E+00    3.80       1.0  T
   3    -18.0778397  0.574309E-02  0.941E-01    3.82       1.0  T
   4    -18.0805426 -0.270283E-02  0.600E-01    3.82       1.0  T
   5    -18.0856869 -0.514433E-02  0.622E-02    3.81       1.0  T
   6    -18.0856881 -0.116006E-05  0.181E-02    3.81       1.4  T
   7    -18.0856882 -0.166821E-06  0.378E-03    3.81       6.6  T
   8    -18.0856883 -0.632504E-07  0.253E-03    3.81       9.9  T
   9    -18.0856884 -0.572279E-07  0.784E-04    3.81      31.9  T
  10    -18.0856884 -0.367894E-08  0.338E-04    3.81      73.9  T

   *** convergence criteria satisfied after 10 iterations ***

         #    Occupation            Energy/Eh            Energy/eV
      -------------------------------------------------------------
         1        2.0000           -0.6137440             -16.7008
       ...           ...                  ...                  ...
        11        2.0000           -0.4675193             -12.7218
        12        2.0000           -0.4598269             -12.5125
        13        2.0000           -0.4420461             -12.0287
        14        2.0000           -0.4377162             -11.9109
        15        2.0000           -0.3943947             -10.7320
        16        2.0000           -0.3841236             -10.4525
        17        2.0000           -0.3621780              -9.8554 (HOMO)
        18                         -0.2221086              -6.0439 (LUMO)
        19                         -0.1838614              -5.0031
        20                         -0.1754826              -4.7751
        21                          0.1151843               3.1343
        22                          0.1329894               3.6188
       ...                                ...                  ...
        34                          0.6492879              17.6680
      -------------------------------------------------------------
                  HL-Gap            0.1400694 Eh            3.8115 eV
             Fermi-level           -0.2921433 Eh           -7.9496 eV

 SCC (total)                   0 d,  0 h,  0 min,  0.009 sec
 SCC setup                      ...        0 min,  0.000 sec (  2.912%)
 Dispersion                     ...        0 min,  0.000 sec (  1.414%)
 classical contributions        ...        0 min,  0.000 sec (  1.980%)
 integral evaluation            ...        0 min,  0.000 sec (  4.950%)
 iterations                     ...        0 min,  0.006 sec ( 74.095%)
 molecular gradient             ...        0 min,  0.001 sec ( 11.170%)
 printout                       ...        0 min,  0.000 sec (  3.255%)

         :::::::::::::::::::::::::::::::::::::::::::::::::::::
         ::                     SUMMARY                     ::
         :::::::::::::::::::::::::::::::::::::::::::::::::::::
         :: total energy             -17.760500679331 Eh    ::
         :: gradient norm              0.589444109620 Eh/a0 ::
         :: HOMO-LUMO gap              3.811481322092 eV    ::
         ::.................................................::
         :: SCC energy               -18.085688354477 Eh    ::
         :: -> isotropic ES            0.002661632884 Eh    ::
         :: -> anisotropic ES          0.007618047761 Eh    ::
         :: -> anisotropic XC          0.013546650382 Eh    ::
         :: -> dispersion             -0.010727923524 Eh    ::
         :: repulsion energy           0.289432027706 Eh    ::
         :: add. restraining           0.035723510594 Eh    ::
         :: total charge              -0.000000000000 e     ::
         :::::::::::::::::::::::::::::::::::::::::::::::::::::

      ----------------------------------------------------------- 
     |                   =====================                   |
     |                        A N C O P T                        |
     |                   =====================                   |
     |               Approximate Normal Coordinate               |
     |                Rational Function Optimizer                |
      ----------------------------------------------------------- 

          ...................................................
          :                      SETUP                      :
          :.................................................:
          :   optimization level            normal          :
          :   max. optcycles                   200          :
          :   ANC micro-cycles                  20          :
          :   degrees of freedom                42          :
          :.................................................:
          :   RF solver                   davidson          :
          :   write xtbopt.log                true          :
          :   linear?                        false          :
          :   energy convergence         0.5000000E-05 Eh   :
          :   grad. convergence          0.1000000E-02 Eh/α :
          :   maxmium RF displ.          1.0000000          :
          :   Hlow (freq-cutoff)         0.1000000E-01      :
          :   Hmax (freq-cutoff)         5.0000000          :
          :   S6 in model hess.         20.0000000          :
          ...................................................

generating ANC from model Hessian ...
Using Lindh-Hessian (1995)
 Shifting diagonal of input Hessian by    6.2946308907801632E-002
 Lowest  eigenvalues of input Hessian
    0.010000    0.023000    0.030197    0.058586    0.000000    0.000000
    0.000000    0.000000    0.000000    0.000000    0.068312    0.072787
    0.075010    0.083371    0.083782    0.088984    0.089429    0.090445
 Highest eigenvalues
    1.246487    1.372850    1.555973    2.004808    8.382911    8.398515


........................................................................
.............................. CYCLE    1 ..............................
........................................................................

 iter      E             dE          RMSdq      gap      omega  full diag
   1    -18.0856884 -0.180857E+02  0.887E-05    3.81       0.0  T
   2    -18.0856884 -0.916600E-12  0.520E-05    3.81     480.8  T
   3    -18.0856884  0.181508E-10  0.488E-05    3.81     511.8  T
     SCC iter.                  ...        0 min,  0.002 sec
     gradient                   ...        0 min,  0.001 sec
 * total energy  :   -17.7605007 Eh     change       -0.1060904E-08 Eh
   gradient norm :     0.5894442 Eh/α   predicted     0.0000000E+00 (-100.00%)
   displ. norm   :     0.1240767 α      lambda       -0.6908660E-01
   maximum displ.:     0.1162105 α      in ANC's #41, #27, #10, ...

........................................................................
.............................. CYCLE    2 ..............................
........................................................................

 iter      E             dE          RMSdq      gap      omega  full diag
   1    -18.0730226 -0.180730E+02  0.162E-01    3.26       0.0  T
   2    -18.0730432 -0.206324E-04  0.925E-02    3.27       1.0  T
   3    -18.0730302  0.130807E-04  0.327E-02    3.27       1.0  T
   4    -18.0730357 -0.557689E-05  0.237E-02    3.27       1.1  T
   5    -18.0730448 -0.901565E-05  0.127E-03    3.27      19.8  T
   6    -18.0730448 -0.143230E-08  0.633E-04    3.27      39.5  T
   7    -18.0730448  0.671996E-10  0.264E-04    3.27      94.7  T
     SCC iter.                  ...        0 min,  0.003 sec
     gradient                   ...        0 min,  0.001 sec
 * total energy  :   -17.7747265 Eh     change       -0.1422577E-01 Eh
   gradient norm :     0.3480669 Eh/α   predicted    -0.3507511E-01 ( 146.56%)
   displ. norm   :     0.0456049 α      lambda       -0.1506964E-01
   maximum displ.:     0.0431036 α      in ANC's #41, #8, #18, ...

........................................................................
.............................. CYCLE    3 ..............................
........................................................................

 iter      E             dE          RMSdq      gap      omega  full diag
   1    -18.0758544 -0.180759E+02  0.766E-02    3.47       0.0  T
   2    -18.0758585 -0.411395E-05  0.442E-02    3.47       1.0  T
   3    -18.0758487  0.979159E-05  0.263E-02    3.47       1.0  T
   4    -18.0758587 -0.995681E-05  0.856E-03    3.47       2.9  T
   5    -18.0758596 -0.971042E-06  0.511E-04    3.47      48.9  T
   6    -18.0758596 -0.429047E-09  0.262E-04    3.47      95.5  T
     SCC iter.                  ...        0 min,  0.003 sec
     gradient                   ...        0 min,  0.001 sec
 * total energy  :   -17.7823097 Eh     change       -0.7583239E-02 Eh
   gradient norm :     0.0028087 Eh/α   predicted    -0.7550487E-02 (  -0.43%)
   displ. norm   :     0.0209348 α      lambda       -0.3521221E-04
   maximum displ.:     0.0116468 α      in ANC's #2, #8, #10, ...

........................................................................
.............................. CYCLE    4 ..............................
........................................................................

 iter      E             dE          RMSdq      gap      omega  full diag
   1    -18.0752860 -0.180753E+02  0.206E-02    3.47       0.0  T
   2    -18.0752861 -0.410818E-07  0.120E-02    3.47       2.1  T
   3    -18.0752860  0.605372E-07  0.208E-03    3.47      12.0  T
   4    -18.0752861 -0.540215E-07  0.932E-04    3.47      26.8  T
   5    -18.0752861 -0.144474E-07  0.170E-04    3.47     147.3  T
     SCC iter.                  ...        0 min,  0.003 sec
     gradient                   ...        0 min,  0.001 sec
 * total energy  :   -17.7823356 Eh     change       -0.2590391E-04 Eh
   gradient norm :     0.0015543 Eh/α   predicted    -0.1761478E-04 ( -32.00%)
   displ. norm   :     0.0513989 α      lambda       -0.3924598E-04
   maximum displ.:     0.0364631 α      in ANC's #8, #10, #17, ...

........................................................................
.............................. CYCLE    5 ..............................
........................................................................

 iter      E             dE          RMSdq      gap      omega  full diag
   1    -18.0734471 -0.180734E+02  0.569E-02    3.46       0.0  T
   2    -18.0734472 -0.341945E-07  0.333E-02    3.46       1.0  T
   3    -18.0734375  0.962777E-05  0.249E-02    3.46       1.0  T
   4    -18.0734480 -0.104909E-04  0.115E-03    3.46      21.7  T
   5    -18.0734480 -0.923262E-08  0.414E-04    3.46      60.4  T
   6    -18.0734480  0.705249E-10  0.187E-04    3.46     133.7  T
     SCC iter.                  ...        0 min,  0.003 sec
     gradient                   ...        0 min,  0.001 sec
 * total energy  :   -17.7823342 Eh     change        0.1345867E-05 Eh
   gradient norm :     0.0034889 Eh/α   predicted    -0.1964580E-04 (*******%)
   displ. norm   :     0.0298307 α      lambda       -0.3466191E-04
   maximum displ.:     0.0269072 α      in ANC's #1, #2, #4, ...

........................................................................
.............................. CYCLE    6 ..............................
........................................................................

 iter      E             dE          RMSdq      gap      omega  full diag
   1    -18.0739368 -0.180739E+02  0.329E-02    3.46       0.0  T
   2    -18.0739367  0.933785E-07  0.197E-02    3.46       1.3  T
   3    -18.0739326  0.408319E-05  0.172E-02    3.46       1.5  T
   4    -18.0739372 -0.456623E-05  0.767E-04    3.46      32.6  T
   5    -18.0739372 -0.468113E-08  0.366E-04    3.46      68.2  T
   6    -18.0739372 -0.634039E-09  0.196E-04    3.46     127.8  T
     SCC iter.                  ...        0 min,  0.003 sec
     gradient                   ...        0 min,  0.001 sec
 * total energy  :   -17.7823462 Eh     change       -0.1195385E-04 Eh
   gradient norm :     0.0020374 Eh/α   predicted    -0.1734546E-04 (  45.10%)
   displ. norm   :     0.0381898 α      lambda       -0.4062032E-04
   maximum displ.:     0.0229223 α      in ANC's #1, #2, #8, ...

........................................................................
.............................. CYCLE    7 ..............................
........................................................................

 iter      E             dE          RMSdq      gap      omega  full diag
   1    -18.0753284 -0.180753E+02  0.438E-02    3.46       0.0  T
   2    -18.0753283  0.123587E-06  0.261E-02    3.46       1.0  T
   3    -18.0753215  0.676725E-05  0.224E-02    3.46       1.1  T
   4    -18.0753291 -0.754474E-05  0.920E-04    3.46      27.2  T
   5    -18.0753291 -0.634377E-08  0.432E-04    3.46      57.9  T
   6    -18.0753291 -0.667590E-09  0.246E-04    3.46     101.8  T
     SCC iter.                  ...        0 min,  0.003 sec
     gradient                   ...        0 min,  0.001 sec
 * total energy  :   -17.7823438 Eh     change        0.2425904E-05 Eh
   gradient norm :     0.0035855 Eh/α   predicted    -0.2033834E-04 (-938.38%)
   displ. norm   :     0.0198359 α      lambda       -0.2946340E-04
   maximum displ.:     0.0139262 α      in ANC's #2, #1, #8, ...

........................................................................
.............................. CYCLE    8 ..............................
........................................................................

 iter      E             dE          RMSdq      gap      omega  full diag
   1    -18.0747902 -0.180748E+02  0.253E-02    3.46       0.0  T
   2    -18.0747902  0.265188E-07  0.150E-02    3.46       1.7  T
   3    -18.0747884  0.171417E-05  0.109E-02    3.46       2.3  T
   4    -18.0747903 -0.185096E-05  0.378E-04    3.46      66.2  T
   5    -18.0747903 -0.823821E-09  0.207E-04    3.46     120.5  T
   6    -18.0747903 -0.106343E-09  0.118E-04    3.46     212.6  T
     SCC iter.                  ...        0 min,  0.003 sec
     gradient                   ...        0 min,  0.001 sec
 * total energy  :   -17.7823591 Eh     change       -0.1530166E-04 Eh
   gradient norm :     0.0004461 Eh/α   predicted    -0.1473589E-04 (  -3.70%)
   displ. norm   :     0.0123153 α      lambda       -0.2207834E-05
   maximum displ.:     0.0076057 α      in ANC's #8, #2, #6, ...

........................................................................
.............................. CYCLE    9 ..............................
........................................................................

 iter      E             dE          RMSdq      gap      omega  full diag
   1    -18.0746904 -0.180747E+02  0.576E-03    3.46       0.0  T
   2    -18.0746904 -0.180255E-08  0.339E-03    3.46       7.4  T
   3    -18.0746903  0.226936E-07  0.124E-03    3.46      20.1  T
   4    -18.0746904 -0.244351E-07  0.151E-04    3.46     165.7  T
   5    -18.0746904 -0.118721E-09  0.761E-05    3.46     328.3  T
     SCC iter.                  ...        0 min,  0.003 sec
     gradient                   ...        0 min,  0.001 sec
 * total energy  :   -17.7823619 Eh     change       -0.2868978E-05 Eh
   gradient norm :     0.0004806 Eh/α   predicted    -0.1103228E-05 ( -61.55%)
   displ. norm   :     0.0778626 α      lambda       -0.1349170E-04
   maximum displ.:     0.0461385 α      in ANC's #2, #8, #6, ...

   *** GEOMETRY OPTIMIZATION CONVERGED AFTER 9 ITERATIONS ***

------------------------------------------------------------------------
 total energy gain   :        -0.0218613 Eh      -13.7182 kcal/mol
 total RMSD          :         0.0320102 a0        0.0169 Å
 total power (kW/mol):        -6.3774171 (step)-1150.3688 (real)
------------------------------------------------------------------------

 ANCopt (total)                0 d,  0 h,  0 min,  0.050 sec
 optimizer setup                ...        0 min,  0.000 sec (  0.365%)
 model hessian                  ...        0 min,  0.007 sec ( 14.103%)
 ANC generation                 ...        0 min,  0.000 sec (  0.875%)
 coordinate transformation      ...        0 min,  0.000 sec (  0.096%)
 single point calculation       ...        0 min,  0.038 sec ( 75.619%)
 optimization log               ...        0 min,  0.001 sec (  2.890%)
 hessian update                 ...        0 min,  0.000 sec (  0.195%)
 rational function              ...        0 min,  0.001 sec (  2.699%)

================
 final structure:
================
16
 xtb: 6.6.1 (8d0f1dd)
C            0.21691329176346        1.60460999023160       -0.32497020969483
C           -1.04732082849377        1.27369176985660       -0.09473722175571
C           -1.62831631628603       -0.03815331071705        0.20796981427376
C           -0.13152271089861       -1.43969970181932        0.70397151338743
C            0.91791490776139       -1.28631024837902       -0.29598329241419
C            1.41785519756948        0.76284307875598       -0.32489174132789
H            0.43087808382542        2.65044352011524       -0.53531112959248
H           -1.78927335049079        2.06821228976069       -0.13872352013321
H           -2.23949273512384       -0.06286164534832        1.09976818972417
H           -2.09578333507297       -0.53005288976241       -0.63514457273460
H            0.13238735729396       -1.17084312761205        1.71569032166800
H           -0.73674022247930       -2.33441239968625        0.63385142576999
H            1.89424474384553       -1.67355912692342       -0.03409576928281
H            0.63258584140906       -1.48267875711734       -1.31865597989545
H            2.01962098392437        0.84035435828873        0.57163013737529
H            2.00616909145264        0.81871620035634       -1.23039796536748

 Bond Distances (Angstroems)
 ---------------------------
C1-C2=1.3270         C1-C6=1.4666         C1-H7=1.0880         C2-C1=1.3270         C2-C3=1.4663         C2-H8=1.0880         
C3-C2=1.4663         C3-H9=1.0814         C3-H10=1.0823        C4-C5=1.4577         C4-H11=1.0796        C4-H12=1.0825        
C5-C4=1.4577         C5-H13=1.0825        C5-H14=1.0797        C6-C1=1.4666         C6-H15=1.0825        C6-H16=1.0813        
H7-C1=1.0880         H8-C2=1.0880         H9-C3=1.0814         H10-C3=1.0823        H11-C4=1.0796        H12-C4=1.0825        
H13-C5=1.0825        H14-C5=1.0797        H15-C6=1.0825        H16-C6=1.0813        
 C  H  Rav=1.0828 sigma=0.0028  Rmin=1.0796  Rmax=1.0880    10
 C  C  Rav=1.4294 sigma=0.0592  Rmin=1.3270  Rmax=1.4666     4

 selected bond angles (degree)
 --------------------
C6-C1-C2=129.57                H7-C1-C2=117.43                H7-C1-C6=113.00                C3-C2-C1=129.53                
H8-C2-C1=117.43                H8-C2-C3=113.05                H9-C3-C2=114.50                H10-C3-C2=114.64               
H10-C3-H9=112.83               H11-C4-C5=116.15               H12-C4-C5=116.43               H12-C4-H11=113.78              
H13-C5-C4=116.47               H14-C5-C4=116.13               H14-C5-H13=113.73              H15-C6-C1=114.47               
H16-C6-C1=114.57               H16-C6-H15=112.79              

 selected dihedral angles (degree)
 ---------------------------------
C3-C2-C1-C6=358.89            C3-C2-C1-H7=179.81            H8-C2-C1-C6=179.54            H8-C2-C1-H7=  0.46            
H9-C3-C2-C1=127.10            H9-C3-C2-H8=306.47            H10-C3-C2-C1=259.78           H10-C3-C2-H8= 79.16           
H13-C5-C4-H11= 46.36          H13-C5-C4-H12=268.15          H14-C5-C4-H11=184.52          H14-C5-C4-H12= 46.30          
H15-C6-C1-C2=258.49           H15-C6-C1-H7= 77.61           H16-C6-C1-C2=125.96           H16-C6-C1-H7=305.07           

 CMA Distance (Angstroems)
 ---------------------------
R(CMA):  2.4335
           -------------------------------------------------
          |                Final Singlepoint                |
           -------------------------------------------------

          ...................................................
          :                      SETUP                      :
          :.................................................:
          :  # basis functions                  34          :
          :  # atomic orbitals                  34          :
          :  # shells                           22          :
          :  # electrons                        34          :
          :  max. iterations                   250          :
          :  Hamiltonian                  GFN2-xTB          :
          :  restarted?                      false          :
          :  GBSA solvation                  false          :
          :  PC potential                    false          :
          :  electronic temp.          300.0000000     K    :
          :  accuracy                    1.0000000          :
          :  -> integral cutoff          0.2500000E+02      :
          :  -> integral neglect         0.1000000E-07      :
          :  -> SCF convergence          0.1000000E-05 Eh   :
          :  -> wf. convergence          0.1000000E-03 e    :
          :  Broyden damping             0.4000000          :
          ...................................................

 iter      E             dE          RMSdq      gap      omega  full diag
   1    -18.0746904 -0.180747E+02  0.377E-05    3.46       0.0  T
   2    -18.0746904 -0.343903E-11  0.284E-05    3.46     881.2  T
   3    -18.0746904 -0.725819E-11  0.111E-05    3.46    2251.9  T

   *** convergence criteria satisfied after 3 iterations ***

         #    Occupation            Energy/Eh            Energy/eV
      -------------------------------------------------------------
         1        2.0000           -0.6136348             -16.6979
       ...           ...                  ...                  ...
        11        2.0000           -0.4674030             -12.7187
        12        2.0000           -0.4593095             -12.4984
        13        2.0000           -0.4423719             -12.0376
        14        2.0000           -0.4373384             -11.9006
        15        2.0000           -0.3926001             -10.6832
        16        2.0000           -0.3837140             -10.4414
        17        2.0000           -0.3577988              -9.7362 (HOMO)
        18                         -0.2308093              -6.2806 (LUMO)
        19                         -0.1856853              -5.0528
        20                         -0.1830642              -4.9814
        21                          0.1152310               3.1356
        22                          0.1324848               3.6051
       ...                                ...                  ...
        34                          0.6494769              17.6732
      -------------------------------------------------------------
                  HL-Gap            0.1269895 Eh            3.4556 eV
             Fermi-level           -0.2943040 Eh           -8.0084 eV

 SCC (total)                   0 d,  0 h,  0 min,  0.003 sec
 SCC setup                      ...        0 min,  0.000 sec (  4.757%)
 Dispersion                     ...        0 min,  0.000 sec (  1.711%)
 classical contributions        ...        0 min,  0.000 sec (  0.291%)
 integral evaluation            ...        0 min,  0.000 sec (  9.114%)
 iterations                     ...        0 min,  0.002 sec ( 50.192%)
 molecular gradient             ...        0 min,  0.001 sec ( 25.505%)
 printout                       ...        0 min,  0.000 sec (  7.850%)

         :::::::::::::::::::::::::::::::::::::::::::::::::::::
         ::                     SUMMARY                     ::
         :::::::::::::::::::::::::::::::::::::::::::::::::::::
         :: total energy             -17.782361948292 Eh    ::
         :: gradient norm              0.000480492345 Eh/a0 ::
         :: HOMO-LUMO gap              3.455560478197 eV    ::
         ::.................................................::
         :: SCC energy               -18.074690367201 Eh    ::
         :: -> isotropic ES            0.002709139033 Eh    ::
         :: -> anisotropic ES          0.007706947548 Eh    ::
         :: -> anisotropic XC          0.013697058287 Eh    ::
         :: -> dispersion             -0.010724409494 Eh    ::
         :: repulsion energy           0.290649911308 Eh    ::
         :: add. restraining           0.001645429724 Eh    ::
         :: total charge               0.000000000000 e     ::
         :::::::::::::::::::::::::::::::::::::::::::::::::::::

           -------------------------------------------------
          |                Property Printout                |
           -------------------------------------------------

    * Orbital Energies and Occupations

         #    Occupation            Energy/Eh            Energy/eV
      -------------------------------------------------------------
         1        2.0000           -0.6136348             -16.6979
       ...           ...                  ...                  ...
         5        2.0000           -0.5467711             -14.8784
         6        2.0000           -0.5176484             -14.0859
         7        2.0000           -0.5051943             -13.7470
         8        2.0000           -0.4918049             -13.3827
         9        2.0000           -0.4763170             -12.9612
        10        2.0000           -0.4723569             -12.8535
        11        2.0000           -0.4674030             -12.7187
        12        2.0000           -0.4593095             -12.4984
        13        2.0000           -0.4423719             -12.0376
        14        2.0000           -0.4373384             -11.9006
        15        2.0000           -0.3926001             -10.6832
        16        2.0000           -0.3837140             -10.4414
        17        2.0000           -0.3577988              -9.7362 (HOMO)
        18                         -0.2308093              -6.2806 (LUMO)
        19                         -0.1856853              -5.0528
        20                         -0.1830642              -4.9814
        21                          0.1152310               3.1356
        22                          0.1324848               3.6051
        23                          0.1561060               4.2479
        24                          0.1821474               4.9565
        25                          0.2015202               5.4836
        26                          0.2100100               5.7147
        27                          0.2177019               5.9240
        28                          0.2493984               6.7865
       ...                                ...                  ...
        34                          0.6494769              17.6732
      -------------------------------------------------------------
                  HL-Gap            0.1269895 Eh            3.4556 eV
             Fermi-level           -0.2943040 Eh           -8.0084 eV

     #   Z          covCN         q      C6AA      α(0)
     1   6 C        2.887    -0.034    28.852     8.806
     2   6 C        2.887    -0.034    28.852     8.806
     3   6 C        3.107    -0.075    29.711     8.931
     4   6 C        3.105    -0.066    29.500     8.900
     5   6 C        3.105    -0.066    29.499     8.899
     6   6 C        3.107    -0.075    29.712     8.931
     7   1 H        0.925     0.029     2.608     2.525
     8   1 H        0.925     0.028     2.609     2.526
     9   1 H        0.925     0.037     2.491     2.468
    10   1 H        0.925     0.040     2.446     2.446
    11   1 H        0.926     0.035     2.517     2.481
    12   1 H        0.925     0.035     2.522     2.483
    13   1 H        0.925     0.035     2.523     2.484
    14   1 H        0.926     0.035     2.517     2.481
    15   1 H        0.925     0.040     2.450     2.447
    16   1 H        0.925     0.037     2.487     2.466

 Mol. C6AA /au·bohr⁶  :       2338.372391
 Mol. C8AA /au·bohr⁸  :      52863.116648
 Mol. α(0) /au        :         78.080587


Wiberg/Mayer (AO) data.
largest (>0.10) Wiberg bond orders for each atom

 ---------------------------------------------------------------------------
     #   Z sym  total        # sym  WBO       # sym  WBO       # sym  WBO
 ---------------------------------------------------------------------------
     1   6 C    3.992 --     2 C    1.900     6 C    1.068     7 H    0.946
     2   6 C    3.992 --     1 C    1.900     3 C    1.069     8 H    0.947
     3   6 C    3.989 --     2 C    1.069     9 H    0.972    10 H    0.967
                             4 C    0.873
     4   6 C    3.992 --     5 C    1.117    11 H    0.984    12 H    0.968
                             3 C    0.873
     5   6 C    3.992 --     4 C    1.117    14 H    0.984    13 H    0.968
                             6 C    0.873
     6   6 C    3.989 --     1 C    1.068    16 H    0.971    15 H    0.967
                             5 C    0.873
     7   1 H    0.999 --     1 C    0.946
     8   1 H    0.999 --     2 C    0.947
     9   1 H    0.999 --     3 C    0.972
    10   1 H    0.998 --     3 C    0.967
    11   1 H    0.999 --     4 C    0.984
    12   1 H    0.999 --     4 C    0.968
    13   1 H    0.999 --     5 C    0.968
    14   1 H    0.999 --     5 C    0.984
    15   1 H    0.998 --     6 C    0.967
    16   1 H    0.999 --     6 C    0.971
 ---------------------------------------------------------------------------

Topologies differ in total number of bonds
Writing topology from bond orders to xtbtopo.mol

molecular dipole:
                 x           y           z       tot (Debye)
 q only:        0.016      -0.055       0.007
   full:        0.014      -0.045       0.006       0.121
molecular quadrupole (traceless):
                xx          xy          yy          xz          yz          zz
 q only:        0.609       0.170      -0.037      -0.210      -0.129      -0.572
  q+dip:        1.408       0.341       0.283      -0.095      -0.284      -1.691
   full:        0.912       0.217       0.213      -0.041      -0.189      -1.125

           -------------------------------------------------
          |                Geometry Summary                 |
           -------------------------------------------------

      molecular mass/u    :       82.1438229
   center of mass at/Å    :       -0.0340845       0.1174714      -0.0172313
  moments of inertia/u·Å² :        0.1185302E+03   0.1432056E+03   0.2396667E+03
rotational constants/cm⁻¹ :        0.1422222E+00   0.1177163E+00   0.7033783E-01

 * 12 selected distances

     #   Z          #   Z                                           value/Å
     1   6 C        2   6 C                                       1.3269523
     4   6 C        5   6 C                                       1.4576548 (max)
     1   6 C        7   1 H                                       1.0880222
     2   6 C        8   1 H                                       1.0879758
     3   6 C        9   1 H                                       1.0814119
     3   6 C       10   1 H                                       1.0822812
     4   6 C       11   1 H                                       1.0795867 (min)
     4   6 C       12   1 H                                       1.0824584
     5   6 C       13   1 H                                       1.0824818
     5   6 C       14   1 H                                       1.0797374
     6   6 C       15   1 H                                       1.0825349
     6   6 C       16   1 H                                       1.0812848

 * 2 distinct bonds (by element types)

   Z      Z             #   av. dist./Å        max./Å        min./Å
   1 H    6 C          10     1.0827775     1.0880222     1.0795867
   6 C    6 C           2     1.3923036     1.4576548     1.3269523


optimized geometry written to: xtbopt.xyz


           -------------------------------------------------
          | TOTAL ENERGY              -17.782361948292 Eh   |
          | GRADIENT NORM               0.000480492345 Eh/α |
          | HOMO-LUMO GAP               3.455560478197 eV   |
           -------------------------------------------------

------------------------------------------------------------------------
 * finished run on 2025/05/23 at 11:05:33.421     
------------------------------------------------------------------------
 total:
 * wall-time:     0 d,  0 h,  0 min,  0.073 sec
 *  cpu-time:     0 d,  0 h,  0 min,  1.011 sec
 * ratio c/w:    13.762 speedup
 SCF:
 * wall-time:     0 d,  0 h,  0 min,  0.009 sec
 *  cpu-time:     0 d,  0 h,  0 min,  0.132 sec
 * ratio c/w:    14.817 speedup
 ANC optimizer:
 * wall-time:     0 d,  0 h,  0 min,  0.055 sec
 *  cpu-time:     0 d,  0 h,  0 min,  0.775 sec
 * ratio c/w:    14.176 speedup

