      -----------------------------------------------------------      
     |                   =====================                   |     
     |                           x T B                           |     
     |                   =====================                   |     
     |                         S. Grimme                         |     
     |          Mulliken Center for Theoretical Chemistry        |     
     |                    University of Bonn                     |     
      -----------------------------------------------------------      

   * xtb version 6.6.1 (8d0f1dd) compiled by 'conda@1efc2f54142f' on 2023-08-01

   xtb is free software: you can redistribute it and/or modify it under
   the terms of the GNU Lesser General Public License as published by
   the Free Software Foundation, either version 3 of the License, or
   (at your option) any later version.
   
   xtb is distributed in the hope that it will be useful,
   but WITHOUT ANY WARRANTY; without even the implied warranty of
   MERCHANTABILITY or FITNESS FOR A PARTICULAR PURPOSE.  See the
   GNU Lesser General Public License for more details.
   
   Cite this work as:
   * C. Bannwarth, E. Caldeweyher, S. Ehlert, A. Hansen, P. Pracht,
     J. Seibert, S. Spicher, S. Grimme, WIREs Comput. Mol. Sci., 2020, 11,
     e01493. DOI: 10.1002/wcms.1493
   
   for GFN2-xTB:
   * C. Bannwarth, S. Ehlert and S. Grimme., J. Chem. Theory Comput., 2019,
     15, 1652-1671. DOI: 10.1021/acs.jctc.8b01176
   for GFN1-xTB:
   * S. Grimme, C. Bannwarth, P. Shushkov, J. Chem. Theory Comput., 2017,
     13, 1989-2009. DOI: 10.1021/acs.jctc.7b00118
   for GFN0-xTB:
   * P. Pracht, E. Caldeweyher, S. Ehlert, S. Grimme, ChemRxiv, 2019, preprint.
     DOI: 10.26434/chemrxiv.8326202.v1
   for GFN-FF:
   * S. Spicher and S. Grimme, Angew. Chem. Int. Ed., 2020, 59, 15665-15673.
     DOI: 10.1002/anie.202004239
   
   for ALPB and GBSA implicit solvation:
   * S. Ehlert, M. Stahn, S. Spicher, S. Grimme, J. Chem. Theory Comput.,
     2021, 17, 4250-4261. DOI: 10.1021/acs.jctc.1c00471
   
   for DFT-D4:
   * E. Caldeweyher, C. Bannwarth and S. Grimme, J. Chem. Phys., 2017,
     147, 034112. DOI: 10.1063/1.4993215
   * E. Caldeweyher, S. Ehlert, A. Hansen, H. Neugebauer, S. Spicher,
     C. Bannwarth and S. Grimme, J. Chem. Phys., 2019, 150, 154122.
     DOI: 10.1063/1.5090222
   * E. Caldeweyher, J.-M. Mewes, S. Ehlert and S. Grimme, Phys. Chem. Chem. Phys.
     2020, 22, 8499-8512. DOI: 10.1039/D0CP00502A
   
   for sTDA-xTB:
   * S. Grimme and C. Bannwarth, J. Chem. Phys., 2016, 145, 054103.
     DOI: 10.1063/1.4959605
   
   in the mass-spec context:
   * V. Asgeirsson, C. Bauer and S. Grimme, Chem. Sci., 2017, 8, 4879.
     DOI: 10.1039/c7sc00601b
   * J. Koopman and S. Grimme, ACS Omega 2019, 4, 12, 15120-15133.
     DOI: 10.1021/acsomega.9b02011
   
   for metadynamics refer to:
   * S. Grimme, J. Chem. Theory Comput., 2019, 155, 2847-2862
     DOI: 10.1021/acs.jctc.9b00143
   
   for SPH calculations refer to:
   * S. Spicher and S. Grimme, J. Chem. Theory Comput., 2021, 17, 1701-1714
     DOI: 10.1021/acs.jctc.0c01306
   
   with help from (in alphabetical order)
   P. Atkinson, C. Bannwarth, F. Bohle, G. Brandenburg, E. Caldeweyher
   M. Checinski, S. Dohm, S. Ehlert, S. Ehrlich, I. Gerasimov, C. Hölzer
   A. Katbashev, J. Koopman, C. Lavigne, S. Lehtola, F. März, M. Müller,
   F. Musil, H. Neugebauer, J. Pisarek, C. Plett, P. Pracht, F. Pultar,
   J. Seibert, P. Shushkov, S. Spicher, M. Stahn, M. Steiner, T. Strunk,
   J. Stückrath, T. Rose, and J. Unsleber
   
 * started run on 2025/05/23 at 11:05:32.400     

           -------------------------------------------------
          |                Calculation Setup                |
           -------------------------------------------------

          program call               : /gpfs/fs1/home/copan/code/autode-practice/.pixi/envs/default/bin/xtb path_opt6_xtb.xyz --chrg 0 --uhf 0 --opt --input xcontrol_path_opt6_xtb
          hostname                   : beboplogin4.lcrc.anl.gov
          coordinate file            : path_opt6_xtb.xyz
          omp threads                :                     8

   ID    Z sym.   atoms
    1    6 C      1-6
    2    1 H      7-16
constraining bond 3 4 to    1.9650000 Å, actual value:    1.9150153 Å
constraining bond 5 6 to    1.9648000 Å, actual value:    1.9148078 Å

           -------------------------------------------------
          |                 G F N 2 - x T B                 |
           -------------------------------------------------

        Reference                      10.1021/acs.jctc.8b01176
      * Hamiltonian:
        H0-scaling (s, p, d)           1.850000    2.230000    2.230000
        zeta-weighting                 0.500000
      * Dispersion:
        s8                             2.700000
        a1                             0.520000
        a2                             5.000000
        s9                             5.000000
      * Repulsion:
        kExp                           1.500000    1.000000
        rExp                           1.000000
      * Coulomb:
        alpha                          2.000000
        third order                    shell-resolved
        anisotropic                    true
        a3                             3.000000
        a5                             4.000000
        cn-shift                       1.200000
        cn-exp                         4.000000
        max-rad                        5.000000


          ...................................................
          :                      SETUP                      :
          :.................................................:
          :  # basis functions                  34          :
          :  # atomic orbitals                  34          :
          :  # shells                           22          :
          :  # electrons                        34          :
          :  max. iterations                   250          :
          :  Hamiltonian                  GFN2-xTB          :
          :  restarted?                      false          :
          :  GBSA solvation                  false          :
          :  PC potential                    false          :
          :  electronic temp.          300.0000000     K    :
          :  accuracy                    1.0000000          :
          :  -> integral cutoff          0.2500000E+02      :
          :  -> integral neglect         0.1000000E-07      :
          :  -> SCF convergence          0.1000000E-05 Eh   :
          :  -> wf. convergence          0.1000000E-03 e    :
          :  Broyden damping             0.4000000          :
          ...................................................

 iter      E             dE          RMSdq      gap      omega  full diag
   1    -18.1020164 -0.181020E+02  0.324E+00    4.99       0.0  T
   2    -18.1292077 -0.271913E-01  0.183E+00    4.94       1.0  T
   3    -18.1288674  0.340310E-03  0.706E-01    4.89       1.0  T
   4    -18.1284114  0.456043E-03  0.364E-01    4.90       1.0  T
   5    -18.1303571 -0.194574E-02  0.579E-02    4.90       1.0  T
   6    -18.1303585 -0.139253E-05  0.158E-02    4.90       1.6  T
   7    -18.1303587 -0.173046E-06  0.238E-03    4.90      10.5  T
   8    -18.1303587 -0.634990E-08  0.546E-04    4.90      45.8  T
   9    -18.1303587 -0.788180E-09  0.264E-04    4.90      94.6  T

   *** convergence criteria satisfied after 9 iterations ***

         #    Occupation            Energy/Eh            Energy/eV
      -------------------------------------------------------------
         1        2.0000           -0.6149040             -16.7324
       ...           ...                  ...                  ...
        11        2.0000           -0.4682064             -12.7405
        12        2.0000           -0.4620258             -12.5724
        13        2.0000           -0.4406589             -11.9909
        14        2.0000           -0.4403631             -11.9829
        15        2.0000           -0.4017245             -10.9315
        16        2.0000           -0.3890491             -10.5866
        17        2.0000           -0.3757315             -10.2242 (HOMO)
        18                         -0.1956480              -5.3239 (LUMO)
        19                         -0.1569712              -4.2714
        20                         -0.1343249              -3.6552
        21                          0.1159516               3.1552
        22                          0.1335719               3.6347
       ...                                ...                  ...
        34                          0.6453112              17.5598
      -------------------------------------------------------------
                  HL-Gap            0.1800835 Eh            4.9003 eV
             Fermi-level           -0.2856898 Eh           -7.7740 eV

 SCC (total)                   0 d,  0 h,  0 min,  0.008 sec
 SCC setup                      ...        0 min,  0.000 sec (  3.025%)
 Dispersion                     ...        0 min,  0.000 sec (  1.601%)
 classical contributions        ...        0 min,  0.000 sec (  1.917%)
 integral evaluation            ...        0 min,  0.000 sec (  5.522%)
 iterations                     ...        0 min,  0.006 sec ( 71.234%)
 molecular gradient             ...        0 min,  0.001 sec ( 12.828%)
 printout                       ...        0 min,  0.000 sec (  3.627%)

         :::::::::::::::::::::::::::::::::::::::::::::::::::::
         ::                     SUMMARY                     ::
         :::::::::::::::::::::::::::::::::::::::::::::::::::::
         :: total energy             -17.810158326546 Eh    ::
         :: gradient norm              0.586618088175 Eh/a0 ::
         :: HOMO-LUMO gap              4.900321915334 eV    ::
         ::.................................................::
         :: SCC energy               -18.130358670149 Eh    ::
         :: -> isotropic ES            0.002531238767 Eh    ::
         :: -> anisotropic ES          0.007008831968 Eh    ::
         :: -> anisotropic XC          0.013047574177 Eh    ::
         :: -> dispersion             -0.010008106554 Eh    ::
         :: repulsion energy           0.284479308765 Eh    ::
         :: add. restraining           0.035694116446 Eh    ::
         :: total charge               0.000000000000 e     ::
         :::::::::::::::::::::::::::::::::::::::::::::::::::::

      ----------------------------------------------------------- 
     |                   =====================                   |
     |                        A N C O P T                        |
     |                   =====================                   |
     |               Approximate Normal Coordinate               |
     |                Rational Function Optimizer                |
      ----------------------------------------------------------- 

          ...................................................
          :                      SETUP                      :
          :.................................................:
          :   optimization level            normal          :
          :   max. optcycles                   200          :
          :   ANC micro-cycles                  20          :
          :   degrees of freedom                42          :
          :.................................................:
          :   RF solver                   davidson          :
          :   write xtbopt.log                true          :
          :   linear?                        false          :
          :   energy convergence         0.5000000E-05 Eh   :
          :   grad. convergence          0.1000000E-02 Eh/α :
          :   maxmium RF displ.          1.0000000          :
          :   Hlow (freq-cutoff)         0.1000000E-01      :
          :   Hmax (freq-cutoff)         5.0000000          :
          :   S6 in model hess.         20.0000000          :
          ...................................................

generating ANC from model Hessian ...
Using Lindh-Hessian (1995)
 Shifting diagonal of input Hessian by    6.6295515816219827E-002
 Lowest  eigenvalues of input Hessian
    0.010000    0.023332    0.034967    0.061976    0.000000    0.000000
    0.000000    0.000000    0.000000    0.000000    0.074788    0.078131
    0.080458    0.088021    0.089862    0.094636    0.096990    0.098179
 Highest eigenvalues
    1.233685    1.310979    1.546801    1.996314    8.507841    8.519108


........................................................................
.............................. CYCLE    1 ..............................
........................................................................

 iter      E             dE          RMSdq      gap      omega  full diag
   1    -18.1303587 -0.181304E+02  0.112E-04    4.90       0.0  T
   2    -18.1303587 -0.378719E-11  0.763E-05    4.90     327.6  T
   3    -18.1303587 -0.312390E-10  0.474E-05    4.90     527.9  T
     SCC iter.                  ...        0 min,  0.002 sec
     gradient                   ...        0 min,  0.001 sec
 * total energy  :   -17.8101583 Eh     change       -0.7114487E-09 Eh
   gradient norm :     0.5866181 Eh/α   predicted     0.0000000E+00 (-100.00%)
   displ. norm   :     0.1237653 α      lambda       -0.6844421E-01
   maximum displ.:     0.1156807 α      in ANC's #41, #27, #11, ...

........................................................................
.............................. CYCLE    2 ..............................
........................................................................

 iter      E             dE          RMSdq      gap      omega  full diag
   1    -18.1174484 -0.181174E+02  0.125E-01    4.58       0.0  T
   2    -18.1174646 -0.161371E-04  0.732E-02    4.58       1.0  T
   3    -18.1174638  0.781915E-06  0.178E-02    4.58       1.4  T
   4    -18.1174639 -0.113117E-06  0.834E-03    4.58       3.0  T
   5    -18.1174650 -0.111435E-05  0.114E-03    4.58      21.9  T
   6    -18.1174650 -0.273426E-08  0.523E-04    4.58      47.8  T
   7    -18.1174650  0.174534E-09  0.150E-04    4.58     166.4  T
     SCC iter.                  ...        0 min,  0.003 sec
     gradient                   ...        0 min,  0.001 sec
 * total energy  :   -17.8238080 Eh     change       -0.1364971E-01 Eh
   gradient norm :     0.3546391 Eh/α   predicted    -0.3474632E-01 ( 154.56%)
   displ. norm   :     0.0450056 α      lambda       -0.1549259E-01
   maximum displ.:     0.0435703 α      in ANC's #41, #9, #2, ...

........................................................................
.............................. CYCLE    3 ..............................
........................................................................

 iter      E             dE          RMSdq      gap      omega  full diag
   1    -18.1203860 -0.181204E+02  0.649E-02    4.72       0.0  T
   2    -18.1203898 -0.382764E-05  0.371E-02    4.73       1.0  T
   3    -18.1203897  0.181446E-06  0.888E-03    4.72       2.8  T
   4    -18.1203897 -0.650585E-07  0.363E-03    4.72       6.9  T
   5    -18.1203899 -0.213321E-06  0.382E-04    4.72      65.5  T
   6    -18.1203899 -0.504020E-09  0.192E-04    4.72     130.4  T
     SCC iter.                  ...        0 min,  0.003 sec
     gradient                   ...        0 min,  0.001 sec
 * total energy  :   -17.8315904 Eh     change       -0.7782320E-02 Eh
   gradient norm :     0.0024915 Eh/α   predicted    -0.7761984E-02 (  -0.26%)
   displ. norm   :     0.0178677 α      lambda       -0.2788749E-04
   maximum displ.:     0.0104006 α      in ANC's #2, #9, #11, ...

........................................................................
.............................. CYCLE    4 ..............................
........................................................................

 iter      E             dE          RMSdq      gap      omega  full diag
   1    -18.1196964 -0.181197E+02  0.171E-02    4.73       0.0  T
   2    -18.1196965 -0.387171E-07  0.998E-03    4.73       2.5  T
   3    -18.1196964  0.105114E-06  0.278E-03    4.73       9.0  T
   4    -18.1196965 -0.117186E-06  0.483E-04    4.73      51.8  T
   5    -18.1196965 -0.243389E-08  0.136E-04    4.73     183.5  T
     SCC iter.                  ...        0 min,  0.003 sec
     gradient                   ...        0 min,  0.001 sec
 * total energy  :   -17.8316109 Eh     change       -0.2050195E-04 Eh
   gradient norm :     0.0014342 Eh/α   predicted    -0.1394826E-04 ( -31.97%)
   displ. norm   :     0.0469950 α      lambda       -0.3110077E-04
   maximum displ.:     0.0276817 α      in ANC's #9, #1, #11, ...

........................................................................
.............................. CYCLE    5 ..............................
........................................................................

 iter      E             dE          RMSdq      gap      omega  full diag
   1    -18.1176921 -0.181177E+02  0.518E-02    4.73       0.0  T
   2    -18.1176925 -0.391293E-06  0.302E-02    4.73       1.0  T
   3    -18.1176913  0.118915E-05  0.956E-03    4.73       2.6  T
   4    -18.1176926 -0.131074E-05  0.157E-03    4.73      15.9  T
   5    -18.1176927 -0.285823E-07  0.511E-04    4.73      48.9  T
   6    -18.1176927 -0.123339E-08  0.297E-04    4.73      84.2  T
     SCC iter.                  ...        0 min,  0.003 sec
     gradient                   ...        0 min,  0.001 sec
 * total energy  :   -17.8315924 Eh     change        0.1842271E-04 Eh
   gradient norm :     0.0041789 Eh/α   predicted    -0.1556599E-04 (-184.49%)
   displ. norm   :     0.0380323 α      lambda       -0.5760347E-04
   maximum displ.:     0.0359619 α      in ANC's #1, #2, #9, ...

........................................................................
.............................. CYCLE    6 ..............................
........................................................................

 iter      E             dE          RMSdq      gap      omega  full diag
   1    -18.1177416 -0.181177E+02  0.453E-02    4.73       0.0  T
   2    -18.1177417 -0.129089E-06  0.268E-02    4.73       1.0  T
   3    -18.1177402  0.148142E-05  0.102E-02    4.73       2.4  T
   4    -18.1177419 -0.161544E-05  0.942E-04    4.73      26.5  T
   5    -18.1177419 -0.776843E-08  0.410E-04    4.73      61.0  T
   6    -18.1177419 -0.597186E-09  0.219E-04    4.73     114.1  T
     SCC iter.                  ...        0 min,  0.003 sec
     gradient                   ...        0 min,  0.001 sec
 * total energy  :   -17.8316050 Eh     change       -0.1251234E-04 Eh
   gradient norm :     0.0029998 Eh/α   predicted    -0.2884367E-04 ( 130.52%)
   displ. norm   :     0.0418336 α      lambda       -0.7405035E-04
   maximum displ.:     0.0253984 α      in ANC's #2, #1, #9, ...

........................................................................
.............................. CYCLE    7 ..............................
........................................................................

 iter      E             dE          RMSdq      gap      omega  full diag
   1    -18.1196653 -0.181197E+02  0.546E-02    4.73       0.0  T
   2    -18.1196656 -0.306070E-06  0.320E-02    4.73       1.0  T
   3    -18.1196641  0.156654E-05  0.105E-02    4.73       2.4  T
   4    -18.1196658 -0.173717E-05  0.111E-03    4.73      22.5  T
   5    -18.1196658 -0.122170E-07  0.469E-04    4.73      53.3  T
   6    -18.1196658 -0.928416E-09  0.288E-04    4.73      86.8  T
     SCC iter.                  ...        0 min,  0.003 sec
     gradient                   ...        0 min,  0.001 sec
 * total energy  :   -17.8316055 Eh     change       -0.5705799E-06 Eh
   gradient norm :     0.0043342 Eh/α   predicted    -0.3709089E-04 (6400.56%)
   displ. norm   :     0.0227848 α      lambda       -0.4747101E-04
   maximum displ.:     0.0207975 α      in ANC's #2, #6, #9, ...

........................................................................
.............................. CYCLE    8 ..............................
........................................................................

 iter      E             dE          RMSdq      gap      omega  full diag
   1    -18.1191717 -0.181192E+02  0.319E-02    4.73       0.0  T
   2    -18.1191718 -0.256710E-07  0.189E-02    4.73       1.3  T
   3    -18.1191715  0.270388E-06  0.425E-03    4.73       5.9  T
   4    -18.1191718 -0.299285E-06  0.304E-04    4.73      82.2  T
   5    -18.1191718 -0.202828E-09  0.167E-04    4.73     150.0  T
     SCC iter.                  ...        0 min,  0.003 sec
     gradient                   ...        0 min,  0.001 sec
 * total energy  :   -17.8316283 Eh     change       -0.2275269E-04 Eh
   gradient norm :     0.0004944 Eh/α   predicted    -0.2374959E-04 (   4.38%)
   displ. norm   :     0.0151529 α      lambda       -0.2733335E-05
   maximum displ.:     0.0105122 α      in ANC's #2, #9, #6, ...

........................................................................
.............................. CYCLE    9 ..............................
........................................................................

 iter      E             dE          RMSdq      gap      omega  full diag
   1    -18.1188508 -0.181189E+02  0.838E-03    4.73       0.0  T
   2    -18.1188508 -0.107938E-07  0.487E-03    4.73       5.1  T
   3    -18.1188508  0.267477E-08  0.604E-04    4.73      41.4  T
   4    -18.1188508 -0.276676E-08  0.313E-04    4.73      80.0  T
     SCC iter.                  ...        0 min,  0.002 sec
     gradient                   ...        0 min,  0.001 sec
 * total energy  :   -17.8316306 Eh     change       -0.2294371E-05 Eh
   gradient norm :     0.0006015 Eh/α   predicted    -0.1365852E-05 ( -40.47%)
   displ. norm   :     0.0176136 α      lambda       -0.2922412E-05
   maximum displ.:     0.0119710 α      in ANC's #2, #9, #6, ...

   *** GEOMETRY OPTIMIZATION CONVERGED AFTER 9 ITERATIONS ***

------------------------------------------------------------------------
 total energy gain   :        -0.0214722 Eh      -13.4740 kcal/mol
 total RMSD          :         0.0307424 a0        0.0163 Å
 total power (kW/mol):        -6.2639291 (step)-1148.4329 (real)
------------------------------------------------------------------------

 ANCopt (total)                0 d,  0 h,  0 min,  0.049 sec
 optimizer setup                ...        0 min,  0.000 sec (  0.347%)
 model hessian                  ...        0 min,  0.007 sec ( 14.112%)
 ANC generation                 ...        0 min,  0.000 sec (  0.922%)
 coordinate transformation      ...        0 min,  0.000 sec (  0.097%)
 single point calculation       ...        0 min,  0.037 sec ( 75.304%)
 optimization log               ...        0 min,  0.001 sec (  2.967%)
 hessian update                 ...        0 min,  0.000 sec (  0.198%)
 rational function              ...        0 min,  0.001 sec (  2.844%)

================
 final structure:
================
16
 xtb: 6.6.1 (8d0f1dd)
C            0.22785350729464        1.56405932561258       -0.31898827518956
C           -1.03530521622046        1.23295950556873       -0.09237396958305
C           -1.59058515737033       -0.09856699666645        0.21309501964402
C           -0.16074431668695       -1.33774639532274        0.70025849911302
C            0.88976631433750       -1.18674398668449       -0.32726946083337
C            1.41825060331967        0.69385568744035       -0.30233891220614
H            0.45336586051438        2.60470706191247       -0.53500193214066
H           -1.78659343024426        2.01619566858045       -0.14271027724573
H           -2.24677309980299       -0.10375491366598        1.07528341650341
H           -2.05447451359882       -0.57751601116217       -0.64262441280253
H            0.13528961397736       -1.03048472470091        1.69433669022521
H           -0.66620415443012       -2.29743233389114        0.69837280572397
H            1.82019749660227       -1.69877974640992       -0.10685798773604
H            0.55465223352401       -1.35982369750397       -1.34109957946141
H            1.99943707489195        0.77809713372162        0.60975502833263
H            2.04198718389213        0.80125442317157       -1.18186665234376

 Bond Distances (Angstroems)
 ---------------------------
C1-C2=1.3253         C1-C6=1.4746         C1-H7=1.0865         C2-C1=1.3253         C2-C3=1.4747         C2-H8=1.0865         
C3-C2=1.4747         C3-H9=1.0835         C3-H10=1.0848        C4-C5=1.4772         C4-H11=1.0818        C4-H12=1.0847        
C5-C4=1.4772         C5-H13=1.0846        C5-H14=1.0817        C6-C1=1.4746         C6-H15=1.0848        C6-H16=1.0836        
H7-C1=1.0865         H8-C2=1.0865         H9-C3=1.0835         H10-C3=1.0848        H11-C4=1.0818        H12-C4=1.0847        
H13-C5=1.0846        H14-C5=1.0817        H15-C6=1.0848        H16-C6=1.0836        
 C  H  Rav=1.0842 sigma=0.0016  Rmin=1.0817  Rmax=1.0865    10
 C  C  Rav=1.4380 sigma=0.0650  Rmin=1.3253  Rmax=1.4772     4

 selected bond angles (degree)
 --------------------
C6-C1-C2=128.32                H7-C1-C2=118.11                H7-C1-C6=113.57                C3-C2-C1=128.31                
H8-C2-C1=118.10                H8-C2-C3=113.59                H9-C3-C2=113.40                H10-C3-C2=113.35               
H10-C3-H9=111.51               H11-C4-C5=114.55               H12-C4-C5=114.87               H12-C4-H11=112.36              
H13-C5-C4=114.86               H14-C5-C4=114.54               H14-C5-H13=112.38              H15-C6-C1=113.34               
H16-C6-C1=113.39               H16-C6-H15=111.49              

 selected dihedral angles (degree)
 ---------------------------------
C3-C2-C1-C6=358.79            C3-C2-C1-H7=179.70            H8-C2-C1-C6=179.67            H8-C2-C1-H7=  0.57            
H9-C3-C2-C1=130.56            H9-C3-C2-H8=309.71            H10-C3-C2-C1=259.01           H10-C3-C2-H8= 78.17           
H13-C5-C4-H11= 55.95          H13-C5-C4-H12=283.66          H14-C5-C4-H11=188.23          H14-C5-C4-H12= 55.94          
H15-C6-C1-C2=258.74           H15-C6-C1-H7= 77.87           H16-C6-C1-C2=130.33           H16-C6-C1-H7=309.45           
           -------------------------------------------------
          |                Final Singlepoint                |
           -------------------------------------------------

          ...................................................
          :                      SETUP                      :
          :.................................................:
          :  # basis functions                  34          :
          :  # atomic orbitals                  34          :
          :  # shells                           22          :
          :  # electrons                        34          :
          :  max. iterations                   250          :
          :  Hamiltonian                  GFN2-xTB          :
          :  restarted?                      false          :
          :  GBSA solvation                  false          :
          :  PC potential                    false          :
          :  electronic temp.          300.0000000     K    :
          :  accuracy                    1.0000000          :
          :  -> integral cutoff          0.2500000E+02      :
          :  -> integral neglect         0.1000000E-07      :
          :  -> SCF convergence          0.1000000E-05 Eh   :
          :  -> wf. convergence          0.1000000E-03 e    :
          :  Broyden damping             0.4000000          :
          ...................................................

 iter      E             dE          RMSdq      gap      omega  full diag
   1    -18.1188508 -0.181189E+02  0.910E-05    4.73       0.0  T
   2    -18.1188508 -0.290257E-11  0.583E-05    4.73     429.0  T
   3    -18.1188508 -0.979838E-11  0.387E-05    4.73     646.6  T

   *** convergence criteria satisfied after 3 iterations ***

         #    Occupation            Energy/Eh            Energy/eV
      -------------------------------------------------------------
         1        2.0000           -0.6144480             -16.7200
       ...           ...                  ...                  ...
        11        2.0000           -0.4680576             -12.7365
        12        2.0000           -0.4615576             -12.5596
        13        2.0000           -0.4411547             -12.0044
        14        2.0000           -0.4397215             -11.9654
        15        2.0000           -0.3993977             -10.8682
        16        2.0000           -0.3872697             -10.5381
        17        2.0000           -0.3733711             -10.1599 (HOMO)
        18                         -0.1994849              -5.4283 (LUMO)
        19                         -0.1679828              -4.5710
        20                         -0.1472838              -4.0078
        21                          0.1156405               3.1467
        22                          0.1335761               3.6348
       ...                                ...                  ...
        34                          0.6461968              17.5839
      -------------------------------------------------------------
                  HL-Gap            0.1738862 Eh            4.7317 eV
             Fermi-level           -0.2864280 Eh           -7.7941 eV

 SCC (total)                   0 d,  0 h,  0 min,  0.003 sec
 SCC setup                      ...        0 min,  0.000 sec (  4.661%)
 Dispersion                     ...        0 min,  0.000 sec (  1.636%)
 classical contributions        ...        0 min,  0.000 sec (  0.287%)
 integral evaluation            ...        0 min,  0.000 sec (  9.340%)
 iterations                     ...        0 min,  0.002 sec ( 50.769%)
 molecular gradient             ...        0 min,  0.001 sec ( 24.873%)
 printout                       ...        0 min,  0.000 sec (  7.676%)

         :::::::::::::::::::::::::::::::::::::::::::::::::::::
         ::                     SUMMARY                     ::
         :::::::::::::::::::::::::::::::::::::::::::::::::::::
         :: total energy             -17.831630569204 Eh    ::
         :: gradient norm              0.000600955977 Eh/a0 ::
         :: HOMO-LUMO gap              4.731685384195 eV    ::
         ::.................................................::
         :: SCC energy               -18.118850799375 Eh    ::
         :: -> isotropic ES            0.002547239649 Eh    ::
         :: -> anisotropic ES          0.007207051405 Eh    ::
         :: -> anisotropic XC          0.013172565584 Eh    ::
         :: -> dispersion             -0.010229878679 Eh    ::
         :: repulsion energy           0.285401306045 Eh    ::
         :: add. restraining           0.001790793965 Eh    ::
         :: total charge              -0.000000000000 e     ::
         :::::::::::::::::::::::::::::::::::::::::::::::::::::

           -------------------------------------------------
          |                Property Printout                |
           -------------------------------------------------

    * Orbital Energies and Occupations

         #    Occupation            Energy/Eh            Energy/eV
      -------------------------------------------------------------
         1        2.0000           -0.6144480             -16.7200
       ...           ...                  ...                  ...
         5        2.0000           -0.5497887             -14.9605
         6        2.0000           -0.5192446             -14.1294
         7        2.0000           -0.5076383             -13.8135
         8        2.0000           -0.4914167             -13.3721
         9        2.0000           -0.4747211             -12.9178
        10        2.0000           -0.4728840             -12.8678
        11        2.0000           -0.4680576             -12.7365
        12        2.0000           -0.4615576             -12.5596
        13        2.0000           -0.4411547             -12.0044
        14        2.0000           -0.4397215             -11.9654
        15        2.0000           -0.3993977             -10.8682
        16        2.0000           -0.3872697             -10.5381
        17        2.0000           -0.3733711             -10.1599 (HOMO)
        18                         -0.1994849              -5.4283 (LUMO)
        19                         -0.1679828              -4.5710
        20                         -0.1472838              -4.0078
        21                          0.1156405               3.1467
        22                          0.1335761               3.6348
        23                          0.1558028               4.2396
        24                          0.1750262               4.7627
        25                          0.1947164               5.2985
        26                          0.2059579               5.6044
        27                          0.2200991               5.9892
        28                          0.2385065               6.4901
       ...                                ...                  ...
        34                          0.6461968              17.5839
      -------------------------------------------------------------
                  HL-Gap            0.1738862 Eh            4.7317 eV
             Fermi-level           -0.2864280 Eh           -7.7941 eV

     #   Z          covCN         q      C6AA      α(0)
     1   6 C        2.887    -0.036    28.892     8.812
     2   6 C        2.887    -0.036    28.892     8.812
     3   6 C        3.417    -0.069    25.195     7.699
     4   6 C        3.414    -0.063    25.122     7.697
     5   6 C        3.414    -0.063    25.113     7.694
     6   6 C        3.417    -0.069    25.186     7.696
     7   1 H        0.925     0.026     2.651     2.546
     8   1 H        0.925     0.026     2.651     2.546
     9   1 H        0.925     0.036     2.504     2.475
    10   1 H        0.925     0.040     2.448     2.447
    11   1 H        0.925     0.036     2.509     2.477
    12   1 H        0.925     0.031     2.575     2.510
    13   1 H        0.925     0.031     2.575     2.509
    14   1 H        0.925     0.036     2.508     2.477
    15   1 H        0.925     0.040     2.449     2.447
    16   1 H        0.925     0.036     2.504     2.474

 Mol. C6AA /au·bohr⁶  :       2181.920347
 Mol. C8AA /au·bohr⁸  :      48820.981177
 Mol. α(0) /au        :         73.317345


Wiberg/Mayer (AO) data.
largest (>0.10) Wiberg bond orders for each atom

 ---------------------------------------------------------------------------
     #   Z sym  total        # sym  WBO       # sym  WBO       # sym  WBO
 ---------------------------------------------------------------------------
     1   6 C    3.992 --     2 C    1.910     6 C    1.056     7 H    0.954
     2   6 C    3.992 --     1 C    1.910     3 C    1.056     8 H    0.954
     3   6 C    3.991 --     2 C    1.056     9 H    0.973    10 H    0.966
                             4 C    0.925
     4   6 C    3.993 --     5 C    1.071    11 H    0.984    12 H    0.973
                             3 C    0.925
     5   6 C    3.993 --     4 C    1.071    14 H    0.984    13 H    0.973
                             6 C    0.925
     6   6 C    3.991 --     1 C    1.056    16 H    0.973    15 H    0.966
                             5 C    0.925
     7   1 H    0.999 --     1 C    0.954
     8   1 H    0.999 --     2 C    0.954
     9   1 H    0.999 --     3 C    0.973
    10   1 H    0.998 --     3 C    0.966
    11   1 H    0.999 --     4 C    0.984
    12   1 H    0.999 --     4 C    0.973
    13   1 H    0.999 --     5 C    0.973
    14   1 H    0.999 --     5 C    0.984
    15   1 H    0.998 --     6 C    0.966
    16   1 H    0.999 --     6 C    0.973
 ---------------------------------------------------------------------------

Topologies differ in total number of bonds
Writing topology from bond orders to xtbtopo.mol

molecular dipole:
                 x           y           z       tot (Debye)
 q only:        0.022      -0.076       0.011
   full:        0.023      -0.078       0.011       0.209
molecular quadrupole (traceless):
                xx          xy          yy          xz          yz          zz
 q only:        0.642       0.226      -0.175      -0.174      -0.084      -0.467
  q+dip:        1.420       0.395       0.125      -0.018      -0.234      -1.545
   full:        0.939       0.284       0.020       0.002      -0.132      -0.958

           -------------------------------------------------
          |                Geometry Summary                 |
           -------------------------------------------------

      molecular mass/u    :       82.1438229
   center of mass at/Å    :       -0.0335873       0.1162436      -0.0170941
  moments of inertia/u·Å² :        0.1168269E+03   0.1309387E+03   0.2250914E+03
rotational constants/cm⁻¹ :        0.1442959E+00   0.1287444E+00   0.7489240E-01

 * 12 selected distances

     #   Z          #   Z                                           value/Å
     1   6 C        2   6 C                                       1.3253495
     4   6 C        5   6 C                                       1.4772232 (max)
     1   6 C        7   1 H                                       1.0864924
     2   6 C        8   1 H                                       1.0864745
     3   6 C        9   1 H                                       1.0835029
     3   6 C       10   1 H                                       1.0848232
     4   6 C       11   1 H                                       1.0817752
     4   6 C       12   1 H                                       1.0846615
     5   6 C       13   1 H                                       1.0846494
     5   6 C       14   1 H                                       1.0817161 (min)
     6   6 C       15   1 H                                       1.0847995
     6   6 C       16   1 H                                       1.0835825

 * 2 distinct bonds (by element types)

   Z      Z             #   av. dist./Å        max./Å        min./Å
   1 H    6 C          10     1.0842477     1.0864924     1.0817161
   6 C    6 C           2     1.4012864     1.4772232     1.3253495


optimized geometry written to: xtbopt.xyz


           -------------------------------------------------
          | TOTAL ENERGY              -17.831630569204 Eh   |
          | GRADIENT NORM               0.000600955977 Eh/α |
          | HOMO-LUMO GAP               4.731685384195 eV   |
           -------------------------------------------------

------------------------------------------------------------------------
 * finished run on 2025/05/23 at 11:05:32.472     
------------------------------------------------------------------------
 total:
 * wall-time:     0 d,  0 h,  0 min,  0.072 sec
 *  cpu-time:     0 d,  0 h,  0 min,  0.993 sec
 * ratio c/w:    13.819 speedup
 SCF:
 * wall-time:     0 d,  0 h,  0 min,  0.008 sec
 *  cpu-time:     0 d,  0 h,  0 min,  0.119 sec
 * ratio c/w:    14.737 speedup
 ANC optimizer:
 * wall-time:     0 d,  0 h,  0 min,  0.054 sec
 *  cpu-time:     0 d,  0 h,  0 min,  0.762 sec
 * ratio c/w:    14.135 speedup

