      -----------------------------------------------------------      
     |                   =====================                   |     
     |                           x T B                           |     
     |                   =====================                   |     
     |                         S. Grimme                         |     
     |          Mulliken Center for Theoretical Chemistry        |     
     |                    University of Bonn                     |     
      -----------------------------------------------------------      

   * xtb version 6.6.1 (8d0f1dd) compiled by 'conda@1efc2f54142f' on 2023-08-01

   xtb is free software: you can redistribute it and/or modify it under
   the terms of the GNU Lesser General Public License as published by
   the Free Software Foundation, either version 3 of the License, or
   (at your option) any later version.
   
   xtb is distributed in the hope that it will be useful,
   but WITHOUT ANY WARRANTY; without even the implied warranty of
   MERCHANTABILITY or FITNESS FOR A PARTICULAR PURPOSE.  See the
   GNU Lesser General Public License for more details.
   
   Cite this work as:
   * C. Bannwarth, E. Caldeweyher, S. Ehlert, A. Hansen, P. Pracht,
     J. Seibert, S. Spicher, S. Grimme, WIREs Comput. Mol. Sci., 2020, 11,
     e01493. DOI: 10.1002/wcms.1493
   
   for GFN2-xTB:
   * C. Bannwarth, S. Ehlert and S. Grimme., J. Chem. Theory Comput., 2019,
     15, 1652-1671. DOI: 10.1021/acs.jctc.8b01176
   for GFN1-xTB:
   * S. Grimme, C. Bannwarth, P. Shushkov, J. Chem. Theory Comput., 2017,
     13, 1989-2009. DOI: 10.1021/acs.jctc.7b00118
   for GFN0-xTB:
   * P. Pracht, E. Caldeweyher, S. Ehlert, S. Grimme, ChemRxiv, 2019, preprint.
     DOI: 10.26434/chemrxiv.8326202.v1
   for GFN-FF:
   * S. Spicher and S. Grimme, Angew. Chem. Int. Ed., 2020, 59, 15665-15673.
     DOI: 10.1002/anie.202004239
   
   for ALPB and GBSA implicit solvation:
   * S. Ehlert, M. Stahn, S. Spicher, S. Grimme, J. Chem. Theory Comput.,
     2021, 17, 4250-4261. DOI: 10.1021/acs.jctc.1c00471
   
   for DFT-D4:
   * E. Caldeweyher, C. Bannwarth and S. Grimme, J. Chem. Phys., 2017,
     147, 034112. DOI: 10.1063/1.4993215
   * E. Caldeweyher, S. Ehlert, A. Hansen, H. Neugebauer, S. Spicher,
     C. Bannwarth and S. Grimme, J. Chem. Phys., 2019, 150, 154122.
     DOI: 10.1063/1.5090222
   * E. Caldeweyher, J.-M. Mewes, S. Ehlert and S. Grimme, Phys. Chem. Chem. Phys.
     2020, 22, 8499-8512. DOI: 10.1039/D0CP00502A
   
   for sTDA-xTB:
   * S. Grimme and C. Bannwarth, J. Chem. Phys., 2016, 145, 054103.
     DOI: 10.1063/1.4959605
   
   in the mass-spec context:
   * V. Asgeirsson, C. Bauer and S. Grimme, Chem. Sci., 2017, 8, 4879.
     DOI: 10.1039/c7sc00601b
   * J. Koopman and S. Grimme, ACS Omega 2019, 4, 12, 15120-15133.
     DOI: 10.1021/acsomega.9b02011
   
   for metadynamics refer to:
   * S. Grimme, J. Chem. Theory Comput., 2019, 155, 2847-2862
     DOI: 10.1021/acs.jctc.9b00143
   
   for SPH calculations refer to:
   * S. Spicher and S. Grimme, J. Chem. Theory Comput., 2021, 17, 1701-1714
     DOI: 10.1021/acs.jctc.0c01306
   
   with help from (in alphabetical order)
   P. Atkinson, C. Bannwarth, F. Bohle, G. Brandenburg, E. Caldeweyher
   M. Checinski, S. Dohm, S. Ehlert, S. Ehrlich, I. Gerasimov, C. Hölzer
   A. Katbashev, J. Koopman, C. Lavigne, S. Lehtola, F. März, M. Müller,
   F. Musil, H. Neugebauer, J. Pisarek, C. Plett, P. Pracht, F. Pultar,
   J. Seibert, P. Shushkov, S. Spicher, M. Stahn, M. Steiner, T. Strunk,
   J. Stückrath, T. Rose, and J. Unsleber
   
 * started run on 2025/05/23 at 11:05:30.494     

           -------------------------------------------------
          |                Calculation Setup                |
           -------------------------------------------------

          program call               : /gpfs/fs1/home/copan/code/autode-practice/.pixi/envs/default/bin/xtb path_opt0_xtb.xyz --chrg 0 --uhf 0 --opt --input xcontrol_path_opt0_xtb
          hostname                   : beboplogin4.lcrc.anl.gov
          coordinate file            : path_opt0_xtb.xyz
          omp threads                :                     8

   ID    Z sym.   atoms
    1    6 C      1-6
    2    1 H      7-16
constraining bond 3 4 to    1.7259000 Å, actual value:    1.5259595 Å
constraining bond 5 6 to    1.7257000 Å, actual value:    1.5257764 Å

           -------------------------------------------------
          |                 G F N 2 - x T B                 |
           -------------------------------------------------

        Reference                      10.1021/acs.jctc.8b01176
      * Hamiltonian:
        H0-scaling (s, p, d)           1.850000    2.230000    2.230000
        zeta-weighting                 0.500000
      * Dispersion:
        s8                             2.700000
        a1                             0.520000
        a2                             5.000000
        s9                             5.000000
      * Repulsion:
        kExp                           1.500000    1.000000
        rExp                           1.000000
      * Coulomb:
        alpha                          2.000000
        third order                    shell-resolved
        anisotropic                    true
        a3                             3.000000
        a5                             4.000000
        cn-shift                       1.200000
        cn-exp                         4.000000
        max-rad                        5.000000


          ...................................................
          :                      SETUP                      :
          :.................................................:
          :  # basis functions                  34          :
          :  # atomic orbitals                  34          :
          :  # shells                           22          :
          :  # electrons                        34          :
          :  max. iterations                   250          :
          :  Hamiltonian                  GFN2-xTB          :
          :  restarted?                      false          :
          :  GBSA solvation                  false          :
          :  PC potential                    false          :
          :  electronic temp.          300.0000000     K    :
          :  accuracy                    1.0000000          :
          :  -> integral cutoff          0.2500000E+02      :
          :  -> integral neglect         0.1000000E-07      :
          :  -> SCF convergence          0.1000000E-05 Eh   :
          :  -> wf. convergence          0.1000000E-03 e    :
          :  Broyden damping             0.4000000          :
          ...................................................

 iter      E             dE          RMSdq      gap      omega  full diag
   1    -18.1877485 -0.181877E+02  0.325E+00    5.35       0.0  T
   2    -18.2241358 -0.363872E-01  0.188E+00    5.28       1.0  T
   3    -18.2246792 -0.543485E-03  0.756E-01    5.23       1.0  T
   4    -18.2247843 -0.105041E-03  0.769E-02    5.23       1.0  T
   5    -18.2247890 -0.470579E-05  0.415E-02    5.23       1.0  T
   6    -18.2247892 -0.214543E-06  0.360E-03    5.23       7.0  T
   7    -18.2247893 -0.690280E-07  0.160E-03    5.23      15.7  T
   8    -18.2247893 -0.172229E-08  0.260E-04    5.23      96.3  T
   9    -18.2247893 -0.231033E-09  0.152E-04    5.23     164.7  T

   *** convergence criteria satisfied after 9 iterations ***

         #    Occupation            Energy/Eh            Energy/eV
      -------------------------------------------------------------
         1        2.0000           -0.6302417             -17.1497
       ...           ...                  ...                  ...
        11        2.0000           -0.4659528             -12.6792
        12        2.0000           -0.4637855             -12.6202
        13        2.0000           -0.4593198             -12.4987
        14        2.0000           -0.4267772             -11.6132
        15        2.0000           -0.4166076             -11.3365
        16        2.0000           -0.4073627             -11.0849
        17        2.0000           -0.3807082             -10.3596 (HOMO)
        18                         -0.1883498              -5.1253 (LUMO)
        19                          0.0981248               2.6701
        20                          0.1028380               2.7984
        21                          0.1096553               2.9839
        22                          0.1232815               3.3547
       ...                                ...                  ...
        34                          0.6419114              17.4673
      -------------------------------------------------------------
                  HL-Gap            0.1923585 Eh            5.2343 eV
             Fermi-level           -0.2845290 Eh           -7.7424 eV

 SCC (total)                   0 d,  0 h,  0 min,  0.009 sec
 SCC setup                      ...        0 min,  0.000 sec (  2.643%)
 Dispersion                     ...        0 min,  0.000 sec (  1.619%)
 classical contributions        ...        0 min,  0.000 sec (  1.877%)
 integral evaluation            ...        0 min,  0.000 sec (  4.835%)
 iterations                     ...        0 min,  0.007 sec ( 74.664%)
 molecular gradient             ...        0 min,  0.001 sec ( 10.976%)
 printout                       ...        0 min,  0.000 sec (  3.162%)

         :::::::::::::::::::::::::::::::::::::::::::::::::::::
         ::                     SUMMARY                     ::
         :::::::::::::::::::::::::::::::::::::::::::::::::::::
         :: total energy             -17.360456201055 Eh    ::
         :: gradient norm              3.023255671140 Eh/a0 ::
         :: HOMO-LUMO gap              5.234339979636 eV    ::
         ::.................................................::
         :: SCC energy               -18.224789272572 Eh    ::
         :: -> isotropic ES            0.002326258183 Eh    ::
         :: -> anisotropic ES          0.004504228779 Eh    ::
         :: -> anisotropic XC          0.011489428835 Eh    ::
         :: -> dispersion             -0.010085111443 Eh    ::
         :: repulsion energy           0.293330769994 Eh    ::
         :: add. restraining           0.570982174993 Eh    ::
         :: total charge               0.000000000000 e     ::
         :::::::::::::::::::::::::::::::::::::::::::::::::::::

      ----------------------------------------------------------- 
     |                   =====================                   |
     |                        A N C O P T                        |
     |                   =====================                   |
     |               Approximate Normal Coordinate               |
     |                Rational Function Optimizer                |
      ----------------------------------------------------------- 

          ...................................................
          :                      SETUP                      :
          :.................................................:
          :   optimization level            normal          :
          :   max. optcycles                   200          :
          :   ANC micro-cycles                  20          :
          :   degrees of freedom                42          :
          :.................................................:
          :   RF solver                   davidson          :
          :   write xtbopt.log                true          :
          :   linear?                        false          :
          :   energy convergence         0.5000000E-05 Eh   :
          :   grad. convergence          0.1000000E-02 Eh/α :
          :   maxmium RF displ.          1.0000000          :
          :   Hlow (freq-cutoff)         0.1000000E-01      :
          :   Hmax (freq-cutoff)         5.0000000          :
          :   S6 in model hess.         20.0000000          :
          ...................................................

generating ANC from model Hessian ...
Using Lindh-Hessian (1995)
 Shifting diagonal of input Hessian by   0.53639422673701376     
 Lowest  eigenvalues of input Hessian
    0.010000    0.074549    0.139482    0.229330    0.000000    0.000000
    0.000000    0.000000    0.000000    0.000000    0.553342    0.560128
    0.560775    0.568499    0.583346    0.584222    0.589238    0.592113
 Highest eigenvalues
    1.599569    1.696164    1.981639    2.438262    9.677275    9.689815


........................................................................
.............................. CYCLE    1 ..............................
........................................................................

 iter      E             dE          RMSdq      gap      omega  full diag
   1    -18.2247893 -0.182248E+02  0.594E-05    5.23       0.0  T
   2    -18.2247893 -0.845191E-11  0.376E-05    5.23     665.5  T
   3    -18.2247893 -0.695977E-11  0.229E-05    5.23    1093.5  T
     SCC iter.                  ...        0 min,  0.002 sec
     gradient                   ...        0 min,  0.001 sec
 * total energy  :   -17.3604562 Eh     change       -0.8101608E-10 Eh
   gradient norm :     3.0232557 Eh/α   predicted     0.0000000E+00 (-100.00%)
   displ. norm   :     0.4720942 α      lambda       -0.1424967E+01
   maximum displ.:     0.4702341 α      in ANC's #41, #27, #28, ...

........................................................................
.............................. CYCLE    2 ..............................
........................................................................

 iter      E             dE          RMSdq      gap      omega  full diag
   1    -18.2055357 -0.182055E+02  0.614E-01    5.12       0.0  T
   2    -18.2058921 -0.356355E-03  0.372E-01    5.09       1.0  T
   3    -18.2058688  0.232683E-04  0.907E-02    5.09       1.0  T
   4    -18.2058968 -0.280078E-04  0.238E-02    5.09       1.1  T
   5    -18.2059049 -0.802199E-05  0.441E-03    5.09       5.7  T
   6    -18.2059049 -0.142131E-07  0.205E-03    5.09      12.2  T
   7    -18.2059049 -0.751516E-09  0.146E-04    5.09     171.8  T
   8    -18.2059049  0.612168E-10  0.101E-04    5.09     247.6  T
     SCC iter.                  ...        0 min,  0.004 sec
     gradient                   ...        0 min,  0.001 sec
 * total energy  :   -17.8437508 Eh     change       -0.4832946E+00 Eh
   gradient norm :     0.9445719 Eh/α   predicted    -0.8712769E+00 (  80.28%)
   displ. norm   :     0.1242389 α      lambda       -0.1062104E+00
   maximum displ.:     0.1108733 α      in ANC's #41, #2, #27, ...

........................................................................
.............................. CYCLE    3 ..............................
........................................................................

 iter      E             dE          RMSdq      gap      omega  full diag
   1    -18.2084756 -0.182085E+02  0.186E-01    5.16       0.0  T
   2    -18.2085151 -0.395038E-04  0.107E-01    5.17       1.0  T
   3    -18.2085118  0.329175E-05  0.379E-02    5.17       1.0  T
   4    -18.2085179 -0.610043E-05  0.620E-03    5.17       4.0  T
   5    -18.2085183 -0.400705E-06  0.137E-03    5.17      18.2  T
   6    -18.2085183 -0.137676E-08  0.576E-04    5.17      43.4  T
   7    -18.2085183 -0.222684E-09  0.763E-05    5.17     327.6  T
     SCC iter.                  ...        0 min,  0.003 sec
     gradient                   ...        0 min,  0.001 sec
 * total energy  :   -17.8992355 Eh     change       -0.5548464E-01 Eh
   gradient norm :     0.0467283 Eh/α   predicted    -0.5392491E-01 (  -2.81%)
   displ. norm   :     0.0522436 α      lambda       -0.1678245E-02
   maximum displ.:     0.0344607 α      in ANC's #27, #2, #18, ...

........................................................................
.............................. CYCLE    4 ..............................
........................................................................

 iter      E             dE          RMSdq      gap      omega  full diag
   1    -18.2019364 -0.182019E+02  0.700E-02    5.16       0.0  T
   2    -18.2019411 -0.469373E-05  0.398E-02    5.16       1.0  T
   3    -18.2019407  0.351143E-06  0.127E-02    5.16       2.0  T
   4    -18.2019415 -0.785334E-06  0.241E-03    5.16      10.4  T
   5    -18.2019416 -0.369675E-07  0.107E-03    5.16      23.4  T
   6    -18.2019416  0.250537E-09  0.355E-04    5.16      70.4  T
   7    -18.2019416 -0.763588E-09  0.174E-04    5.16     143.6  T
     SCC iter.                  ...        0 min,  0.003 sec
     gradient                   ...        0 min,  0.001 sec
 * total energy  :   -17.9004203 Eh     change       -0.1184882E-02 Eh
   gradient norm :     0.0282938 Eh/α   predicted    -0.8414132E-03 ( -28.99%)
   displ. norm   :     0.1946152 α      lambda       -0.4381075E-02
   maximum displ.:     0.1175756 α      in ANC's #2, #27, #18, ...

........................................................................
.............................. CYCLE    5 ..............................
........................................................................

 iter      E             dE          RMSdq      gap      omega  full diag
   1    -18.1813327 -0.181813E+02  0.274E-01    5.15       0.0  T
   2    -18.1813710 -0.382413E-04  0.155E-01    5.15       1.0  T
   3    -18.1813703  0.719797E-06  0.307E-02    5.15       1.0  T
   4    -18.1813732 -0.290048E-05  0.780E-03    5.15       3.2  T
   5    -18.1813736 -0.456452E-06  0.349E-03    5.15       7.2  T
   6    -18.1813736  0.245186E-08  0.214E-03    5.15      11.7  T
   7    -18.1813736 -0.387124E-07  0.487E-04    5.15      51.3  T
   8    -18.1813736 -0.130348E-08  0.150E-04    5.15     166.7  T
     SCC iter.                  ...        0 min,  0.004 sec
     gradient                   ...        0 min,  0.001 sec
 * total energy  :   -17.9012573 Eh     change       -0.8369439E-03 Eh
   gradient norm :     0.0853013 Eh/α   predicted    -0.2273521E-02 ( 171.65%)
   displ. norm   :     0.0904693 α      lambda       -0.1986136E-02
   maximum displ.:     0.0665954 α      in ANC's #1, #2, #41, ...

........................................................................
.............................. CYCLE    6 ..............................
........................................................................

 iter      E             dE          RMSdq      gap      omega  full diag
   1    -18.1826929 -0.181827E+02  0.160E-01    5.15       0.0  T
   2    -18.1826964 -0.357214E-05  0.952E-02    5.15       1.0  T
   3    -18.1826799  0.165273E-04  0.381E-02    5.15       1.0  T
   4    -18.1826984 -0.184517E-04  0.516E-03    5.15       4.8  T
   5    -18.1826986 -0.267120E-06  0.174E-03    5.15      14.4  T
   6    -18.1826986 -0.118595E-07  0.724E-04    5.15      34.5  T
   7    -18.1826986 -0.606537E-09  0.124E-04    5.15     201.2  T
     SCC iter.                  ...        0 min,  0.003 sec
     gradient                   ...        0 min,  0.001 sec
 * total energy  :   -17.9019535 Eh     change       -0.6961886E-03 Eh
   gradient norm :     0.0302629 Eh/α   predicted    -0.1001197E-02 (  43.81%)
   displ. norm   :     0.5409325 α      lambda       -0.8456504E-02
   maximum displ.:     0.4689857 α      in ANC's #1, #2, #27, ...

........................................................................
.............................. CYCLE    7 ..............................
........................................................................

 iter      E             dE          RMSdq      gap      omega  full diag
   1    -18.1603154 -0.181603E+02  0.937E-01    5.06       0.0  T
   2    -18.1604129 -0.975115E-04  0.561E-01    5.06       1.0  T
   3    -18.1594695  0.943403E-03  0.288E-01    5.07       1.0  T
   4    -18.1605257 -0.105615E-02  0.281E-02    5.06       1.0  T
   5    -18.1605337 -0.802209E-05  0.961E-03    5.06       2.6  T
   6    -18.1605340 -0.362078E-06  0.432E-03    5.06       5.8  T
   7    -18.1605341 -0.228931E-07  0.759E-04    5.06      32.9  T
   8    -18.1605341 -0.788869E-09  0.267E-04    5.06      93.5  T
     SCC iter.                  ...        0 min,  0.004 sec
     gradient                   ...        0 min,  0.001 sec
 * total energy  :   -17.8553667 Eh     change        0.4658679E-01 Eh
   gradient norm :     0.5593392 Eh/α   predicted    -0.5465501E-02 (-111.73%)
   displ. norm   :     0.3762093 α      lambda       -0.9485666E-01
   maximum displ.:     0.3082178 α      in ANC's #1, #2, #41, ...

........................................................................
.............................. CYCLE    8 ..............................
........................................................................

 iter      E             dE          RMSdq      gap      omega  full diag
   1    -18.1842972 -0.181843E+02  0.680E-01    5.14       0.0  T
   2    -18.1843633 -0.661532E-04  0.405E-01    5.15       1.0  T
   3    -18.1839274  0.435941E-03  0.197E-01    5.15       1.0  T
   4    -18.1844185 -0.491153E-03  0.209E-02    5.15       1.2  T
   5    -18.1844223 -0.372666E-05  0.718E-03    5.15       3.5  T
   6    -18.1844224 -0.165116E-06  0.319E-03    5.15       7.8  T
   7    -18.1844224 -0.134512E-07  0.570E-04    5.15      43.9  T
   8    -18.1844224 -0.644146E-09  0.227E-04    5.15     110.2  T
     SCC iter.                  ...        0 min,  0.004 sec
     gradient                   ...        0 min,  0.001 sec
 * total energy  :   -17.9014702 Eh     change       -0.4610351E-01 Eh
   gradient norm :     0.0441658 Eh/α   predicted    -0.5414099E-01 (  17.43%)
   displ. norm   :     0.0822819 α      lambda       -0.2048895E-02
   maximum displ.:     0.0609613 α      in ANC's #1, #3, #2, ...

........................................................................
.............................. CYCLE    9 ..............................
........................................................................

 iter      E             dE          RMSdq      gap      omega  full diag
   1    -18.1847133 -0.181847E+02  0.156E-01    5.15       0.0  T
   2    -18.1847175 -0.421099E-05  0.966E-02    5.15       1.0  T
   3    -18.1846817  0.358299E-04  0.626E-02    5.15       1.0  T
   4    -18.1847262 -0.445435E-04  0.487E-03    5.15       5.1  T
   5    -18.1847265 -0.266525E-06  0.145E-03    5.15      17.3  T
   6    -18.1847265 -0.509903E-08  0.659E-04    5.15      37.9  T
   7    -18.1847265 -0.431044E-09  0.103E-04    5.15     242.0  T
     SCC iter.                  ...        0 min,  0.003 sec
     gradient                   ...        0 min,  0.001 sec
 * total energy  :   -17.9024982 Eh     change       -0.1027955E-02 Eh
   gradient norm :     0.0263566 Eh/α   predicted    -0.1031385E-02 (   0.33%)
   displ. norm   :     0.0561029 α      lambda       -0.6753829E-03
   maximum displ.:     0.0355715 α      in ANC's #3, #1, #2, ...

........................................................................
.............................. CYCLE   10 ..............................
........................................................................

 iter      E             dE          RMSdq      gap      omega  full diag
   1    -18.1845888 -0.181846E+02  0.883E-02    5.15       0.0  T
   2    -18.1845892 -0.461802E-06  0.540E-02    5.15       1.0  T
   3    -18.1845778  0.114106E-04  0.323E-02    5.16       1.0  T
   4    -18.1845910 -0.132159E-04  0.162E-03    5.16      15.4  T
   5    -18.1845910 -0.148033E-07  0.765E-04    5.16      32.7  T
   6    -18.1845910 -0.129417E-08  0.199E-04    5.16     125.3  T
     SCC iter.                  ...        0 min,  0.003 sec
     gradient                   ...        0 min,  0.001 sec
 * total energy  :   -17.9027693 Eh     change       -0.2711470E-03 Eh
   gradient norm :     0.0232006 Eh/α   predicted    -0.3387550E-03 (  24.93%)
   displ. norm   :     0.0196969 α      lambda       -0.1789811E-03
   maximum displ.:     0.0111909 α      in ANC's #3, #15, #18, ...

........................................................................
.............................. CYCLE   11 ..............................
........................................................................

 iter      E             dE          RMSdq      gap      omega  full diag
   1    -18.1846935 -0.181847E+02  0.315E-02    5.16       0.0  T
   2    -18.1846936 -0.131481E-06  0.189E-02    5.16       1.3  T
   3    -18.1846926  0.104358E-05  0.981E-03    5.16       2.5  T
   4    -18.1846938 -0.118904E-05  0.872E-04    5.16      28.7  T
   5    -18.1846938 -0.706081E-08  0.318E-04    5.16      78.7  T
   6    -18.1846938 -0.288498E-09  0.138E-04    5.16     181.8  T
     SCC iter.                  ...        0 min,  0.003 sec
     gradient                   ...        0 min,  0.001 sec
 * total energy  :   -17.9028849 Eh     change       -0.1155721E-03 Eh
   gradient norm :     0.0138682 Eh/α   predicted    -0.8952660E-04 ( -22.54%)
   displ. norm   :     0.0269883 α      lambda       -0.1524331E-03
   maximum displ.:     0.0160707 α      in ANC's #15, #18, #2, ...

........................................................................
.............................. CYCLE   12 ..............................
........................................................................

 iter      E             dE          RMSdq      gap      omega  full diag
   1    -18.1854600 -0.181855E+02  0.342E-02    5.16       0.0  T
   2    -18.1854601 -0.953376E-07  0.201E-02    5.16       1.2  T
   3    -18.1854598  0.302224E-06  0.510E-03    5.16       4.9  T
   4    -18.1854602 -0.346398E-06  0.944E-04    5.16      26.5  T
   5    -18.1854602 -0.749269E-08  0.358E-04    5.16      69.8  T
     SCC iter.                  ...        0 min,  0.003 sec
     gradient                   ...        0 min,  0.001 sec
 * total energy  :   -17.9029827 Eh     change       -0.9778105E-04 Eh
   gradient norm :     0.0086467 Eh/α   predicted    -0.7627018E-04 ( -22.00%)
   displ. norm   :     0.0260808 α      lambda       -0.7192718E-04
   maximum displ.:     0.0154218 α      in ANC's #15, #18, #2, ...

........................................................................
.............................. CYCLE   13 ..............................
........................................................................

 iter      E             dE          RMSdq      gap      omega  full diag
   1    -18.1866476 -0.181866E+02  0.317E-02    5.17       0.0  T
   2    -18.1866477 -0.797360E-07  0.187E-02    5.17       1.3  T
   3    -18.1866476  0.136422E-06  0.346E-03    5.17       7.2  T
   4    -18.1866477 -0.161897E-06  0.754E-04    5.17      33.2  T
   5    -18.1866477 -0.434751E-08  0.307E-04    5.17      81.4  T
     SCC iter.                  ...        0 min,  0.003 sec
     gradient                   ...        0 min,  0.001 sec
 * total energy  :   -17.9030290 Eh     change       -0.4635558E-04 Eh
   gradient norm :     0.0073127 Eh/α   predicted    -0.3598889E-04 ( -22.36%)
   displ. norm   :     0.0136914 α      lambda       -0.2587589E-04
   maximum displ.:     0.0079424 α      in ANC's #15, #9, #17, ...

........................................................................
.............................. CYCLE   14 ..............................
........................................................................

 iter      E             dE          RMSdq      gap      omega  full diag
   1    -18.1872143 -0.181872E+02  0.150E-02    5.17       0.0  T
   2    -18.1872144 -0.212596E-07  0.887E-03    5.17       2.8  T
   3    -18.1872142  0.124241E-06  0.324E-03    5.17       7.7  T
   4    -18.1872144 -0.139840E-06  0.335E-04    5.17      74.6  T
   5    -18.1872144 -0.829488E-09  0.145E-04    5.17     171.9  T
     SCC iter.                  ...        0 min,  0.003 sec
     gradient                   ...        0 min,  0.001 sec
 * total energy  :   -17.9030472 Eh     change       -0.1816743E-04 Eh
   gradient norm :     0.0032160 Eh/α   predicted    -0.1293955E-04 ( -28.78%)
   displ. norm   :     0.0122264 α      lambda       -0.1925331E-04
   maximum displ.:     0.0068642 α      in ANC's #9, #15, #17, ...

........................................................................
.............................. CYCLE   15 ..............................
........................................................................

 iter      E             dE          RMSdq      gap      omega  full diag
   1    -18.1875129 -0.181875E+02  0.124E-02    5.17       0.0  T
   2    -18.1875129 -0.905324E-08  0.731E-03    5.17       3.4  T
   3    -18.1875129  0.340972E-08  0.750E-04    5.17      33.3  T
   4    -18.1875130 -0.572243E-08  0.250E-04    5.17     100.0  T
     SCC iter.                  ...        0 min,  0.002 sec
     gradient                   ...        0 min,  0.001 sec
 * total energy  :   -17.9030609 Eh     change       -0.1376358E-04 Eh
   gradient norm :     0.0032575 Eh/α   predicted    -0.9627842E-05 ( -30.05%)
   displ. norm   :     0.0121836 α      lambda       -0.1591592E-04
   maximum displ.:     0.0079526 α      in ANC's #9, #17, #15, ...

........................................................................
.............................. CYCLE   16 ..............................
........................................................................

 iter      E             dE          RMSdq      gap      omega  full diag
   1    -18.1876166 -0.181876E+02  0.121E-02    5.18       0.0  T
   2    -18.1876166 -0.280527E-07  0.706E-03    5.18       3.5  T
   3    -18.1876166  0.463105E-07  0.208E-03    5.18      12.0  T
   4    -18.1876166 -0.523864E-07  0.497E-04    5.18      50.3  T
   5    -18.1876166 -0.246292E-08  0.136E-04    5.18     183.4  T
     SCC iter.                  ...        0 min,  0.003 sec
     gradient                   ...        0 min,  0.001 sec
 * total energy  :   -17.9030718 Eh     change       -0.1090953E-04 Eh
   gradient norm :     0.0044166 Eh/α   predicted    -0.7959537E-05 ( -27.04%)
   displ. norm   :     0.0092588 α      lambda       -0.9590671E-05
   maximum displ.:     0.0064373 α      in ANC's #9, #17, #8, ...

........................................................................
.............................. CYCLE   17 ..............................
........................................................................

 iter      E             dE          RMSdq      gap      omega  full diag
   1    -18.1875339 -0.181875E+02  0.842E-03    5.18       0.0  T
   2    -18.1875339 -0.186669E-07  0.500E-03    5.18       5.0  T
   3    -18.1875339  0.567863E-07  0.232E-03    5.18      10.8  T
   4    -18.1875339 -0.656244E-07  0.394E-04    5.18      63.5  T
   5    -18.1875339 -0.140215E-08  0.125E-04    5.18     199.8  T
     SCC iter.                  ...        0 min,  0.003 sec
     gradient                   ...        0 min,  0.001 sec
 * total energy  :   -17.9030785 Eh     change       -0.6683482E-05 Eh
   gradient norm :     0.0029359 Eh/α   predicted    -0.4795964E-05 ( -28.24%)
   displ. norm   :     0.0084882 α      lambda       -0.7181785E-05
   maximum displ.:     0.0058008 α      in ANC's #9, #8, #17, ...

........................................................................
.............................. CYCLE   18 ..............................
........................................................................

 iter      E             dE          RMSdq      gap      omega  full diag
   1    -18.1874224 -0.181874E+02  0.644E-03    5.18       0.0  T
   2    -18.1874224 -0.915525E-08  0.381E-03    5.18       6.6  T
   3    -18.1874224  0.358933E-07  0.183E-03    5.18      13.7  T
   4    -18.1874224 -0.413091E-07  0.245E-04    5.18     102.2  T
   5    -18.1874224 -0.470287E-09  0.859E-05    5.18     291.1  T
     SCC iter.                  ...        0 min,  0.003 sec
     gradient                   ...        0 min,  0.001 sec
 * total energy  :   -17.9030839 Eh     change       -0.5323077E-05 Eh
   gradient norm :     0.0016829 Eh/α   predicted    -0.3590416E-05 ( -32.55%)
   displ. norm   :     0.0182269 α      lambda       -0.8866817E-05
   maximum displ.:     0.0120145 α      in ANC's #9, #8, #2, ...

........................................................................
.............................. CYCLE   19 ..............................
........................................................................

 iter      E             dE          RMSdq      gap      omega  full diag
   1    -18.1872215 -0.181872E+02  0.105E-02    5.18       0.0  T
   2    -18.1872215 -0.217360E-07  0.619E-03    5.18       4.0  T
   3    -18.1872214  0.326091E-07  0.178E-03    5.18      14.0  T
   4    -18.1872215 -0.387481E-07  0.436E-04    5.18      57.3  T
   5    -18.1872215 -0.194072E-08  0.148E-04    5.18     168.9  T
     SCC iter.                  ...        0 min,  0.003 sec
     gradient                   ...        0 min,  0.001 sec
 * total energy  :   -17.9030922 Eh     change       -0.8389048E-05 Eh
   gradient norm :     0.0044139 Eh/α   predicted    -0.4434268E-05 ( -47.14%)
   displ. norm   :     0.0106731 α      lambda       -0.7953751E-05
   maximum displ.:     0.0063306 α      in ANC's #9, #8, #2, ...

........................................................................
.............................. CYCLE   20 ..............................
........................................................................

 iter      E             dE          RMSdq      gap      omega  full diag
   1    -18.1872323 -0.181872E+02  0.462E-03    5.18       0.0  T
   2    -18.1872323 -0.259995E-08  0.275E-03    5.18       9.1  T
   3    -18.1872323  0.171704E-07  0.121E-03    5.18      20.7  T
   4    -18.1872323 -0.195686E-07  0.134E-04    5.18     186.5  T
   5    -18.1872323 -0.109239E-09  0.566E-05    5.18     441.4  T
     SCC iter.                  ...        0 min,  0.003 sec
     gradient                   ...        0 min,  0.001 sec
 * total energy  :   -17.9030991 Eh     change       -0.6854454E-05 Eh
   gradient norm :     0.0040136 Eh/α   predicted    -0.3976940E-05 ( -41.98%)
   displ. norm   :     0.0330286 α      lambda       -0.2122265E-04
   maximum displ.:     0.0193898 α      in ANC's #9, #8, #2, ...
 * RMSD in coord.:     0.1311048 α      energy gain  -0.5426429E+00 Eh

generating ANC from model Hessian ...
Using Lindh-Hessian (1995)
 Shifting diagonal of input Hessian by    6.8369407163963647E-003
 Lowest  eigenvalues of input Hessian
    0.000000    0.000000    0.000000    0.000000    0.000000    0.000000
    0.010000    0.010862    0.016621    0.024454    0.028066    0.032157
    0.036376    0.040288    0.043084    0.045740    0.047400    0.051920
 Highest eigenvalues
    1.191757    1.240390    1.491361    1.930900    8.712591    8.724170


........................................................................
.............................. CYCLE   21 ..............................
........................................................................

 iter      E             dE          RMSdq      gap      omega  full diag
   1    -18.1873071 -0.181873E+02  0.118E-02    5.18       0.0  T
   2    -18.1873071 -0.311393E-07  0.703E-03    5.18       3.6  T
   3    -18.1873070  0.156244E-06  0.384E-03    5.18       6.5  T
   4    -18.1873071 -0.184211E-06  0.465E-04    5.18      53.8  T
   5    -18.1873071 -0.154251E-08  0.171E-04    5.18     146.0  T
     SCC iter.                  ...        0 min,  0.003 sec
     gradient                   ...        0 min,  0.001 sec
 * total energy  :   -17.9031115 Eh     change       -0.1237845E-04 Eh
   gradient norm :     0.0020275 Eh/α   predicted     0.0000000E+00 (-100.00%)
   displ. norm   :     0.0467145 α      lambda       -0.3846576E-04
   maximum displ.:     0.0422520 α      in ANC's #2, #5, #4, ...

........................................................................
.............................. CYCLE   22 ..............................
........................................................................

 iter      E             dE          RMSdq      gap      omega  full diag
   1    -18.1873971 -0.181874E+02  0.238E-02    5.18       0.0  T
   2    -18.1873971 -0.304551E-07  0.140E-02    5.18       1.8  T
   3    -18.1873971  0.110908E-07  0.136E-03    5.18      18.4  T
   4    -18.1873971 -0.220437E-07  0.478E-04    5.18      52.3  T
   5    -18.1873971 -0.105607E-08  0.240E-04    5.18     104.0  T
     SCC iter.                  ...        0 min,  0.003 sec
     gradient                   ...        0 min,  0.001 sec
 * total energy  :   -17.9031344 Eh     change       -0.2295144E-04 Eh
   gradient norm :     0.0012775 Eh/α   predicted    -0.1927261E-04 ( -16.03%)
   displ. norm   :     0.0482230 α      lambda       -0.1369103E-04
   maximum displ.:     0.0410571 α      in ANC's #2, #5, #10, ...

........................................................................
.............................. CYCLE   23 ..............................
........................................................................

 iter      E             dE          RMSdq      gap      omega  full diag
   1    -18.1873913 -0.181874E+02  0.277E-02    5.18       0.0  T
   2    -18.1873914 -0.596175E-07  0.163E-02    5.18       1.5  T
   3    -18.1873914  0.335372E-07  0.207E-03    5.18      12.1  T
   4    -18.1873914 -0.474047E-07  0.607E-04    5.18      41.2  T
   5    -18.1873914 -0.244121E-08  0.321E-04    5.18      77.9  T
     SCC iter.                  ...        0 min,  0.003 sec
     gradient                   ...        0 min,  0.001 sec
 * total energy  :   -17.9031394 Eh     change       -0.4967710E-05 Eh
   gradient norm :     0.0015089 Eh/α   predicted    -0.6854524E-05 (  37.98%)
   displ. norm   :     0.0308412 α      lambda       -0.1091832E-04
   maximum displ.:     0.0223043 α      in ANC's #2, #4, #3, ...

........................................................................
.............................. CYCLE   24 ..............................
........................................................................

 iter      E             dE          RMSdq      gap      omega  full diag
   1    -18.1874185 -0.181874E+02  0.194E-02    5.18       0.0  T
   2    -18.1874185 -0.223864E-07  0.115E-02    5.18       2.2  T
   3    -18.1874185  0.525461E-08  0.101E-03    5.18      24.8  T
   4    -18.1874186 -0.104640E-07  0.309E-04    5.18      80.8  T
   5    -18.1874186 -0.284775E-09  0.190E-04    5.18     131.7  T
     SCC iter.                  ...        0 min,  0.003 sec
     gradient                   ...        0 min,  0.001 sec
 * total energy  :   -17.9031452 Eh     change       -0.5846046E-05 Eh
   gradient norm :     0.0010192 Eh/α   predicted    -0.5461274E-05 (  -6.58%)
   displ. norm   :     0.0132789 α      lambda       -0.3583507E-05
   maximum displ.:     0.0083206 α      in ANC's #5, #1, #6, ...

........................................................................
.............................. CYCLE   25 ..............................
........................................................................

 iter      E             dE          RMSdq      gap      omega  full diag
   1    -18.1874559 -0.181875E+02  0.144E-02    5.18       0.0  T
   2    -18.1874560 -0.200600E-07  0.843E-03    5.18       3.0  T
   3    -18.1874560  0.147721E-07  0.123E-03    5.18      20.3  T
   4    -18.1874560 -0.195992E-07  0.251E-04    5.18      99.7  T
   5    -18.1874560 -0.403368E-09  0.144E-04    5.18     173.1  T
     SCC iter.                  ...        0 min,  0.003 sec
     gradient                   ...        0 min,  0.001 sec
 * total energy  :   -17.9031460 Eh     change       -0.7096905E-06 Eh
   gradient norm :     0.0011802 Eh/α   predicted    -0.1793370E-05 ( 152.70%)
   displ. norm   :     0.0076961 α      lambda       -0.1976753E-05
   maximum displ.:     0.0043093 α      in ANC's #5, #2, #10, ...

........................................................................
.............................. CYCLE   26 ..............................
........................................................................

 iter      E             dE          RMSdq      gap      omega  full diag
   1    -18.1874309 -0.181874E+02  0.100E-02    5.18       0.0  T
   2    -18.1874309 -0.294218E-08  0.588E-03    5.18       4.3  T
   3    -18.1874309  0.231520E-09  0.303E-04    5.18      82.5  T
   4    -18.1874309 -0.809074E-09  0.149E-04    5.18     168.3  T
     SCC iter.                  ...        0 min,  0.002 sec
     gradient                   ...        0 min,  0.001 sec
 * total energy  :   -17.9031469 Eh     change       -0.9257117E-06 Eh
   gradient norm :     0.0004271 Eh/α   predicted    -0.9883529E-06 (   6.77%)
   displ. norm   :     0.0060509 α      lambda       -0.6845006E-06
   maximum displ.:     0.0034365 α      in ANC's #2, #5, #4, ...

   *** GEOMETRY OPTIMIZATION CONVERGED AFTER 26 ITERATIONS ***

------------------------------------------------------------------------
 total energy gain   :        -0.5426907 Eh     -340.5435 kcal/mol
 total RMSD          :         0.1388210 a0        0.0735 Å
 total power (kW/mol):       -54.8013145 (step)********** (real)
------------------------------------------------------------------------

 ANCopt (total)                0 d,  0 h,  0 min,  0.142 sec
 optimizer setup                ...        0 min,  0.000 sec (  0.119%)
 model hessian                  ...        0 min,  0.017 sec ( 11.810%)
 ANC generation                 ...        0 min,  0.001 sec (  0.605%)
 coordinate transformation      ...        0 min,  0.000 sec (  0.099%)
 single point calculation       ...        0 min,  0.111 sec ( 78.571%)
 optimization log               ...        0 min,  0.004 sec (  2.865%)
 hessian update                 ...        0 min,  0.000 sec (  0.192%)
 rational function              ...        0 min,  0.004 sec (  2.708%)

================
 final structure:
================
16
 xtb: 6.6.1 (8d0f1dd)
C            0.23992967435025        1.51680052058883       -0.31510391596867
C           -1.02054478033054        1.18732372496219       -0.08255809477412
C           -1.52084605516042       -0.17617085320113        0.23321246260729
C           -0.22205130419414       -1.20984012471213        0.67320375688320
C            0.87281519763081       -1.04378929653195       -0.33987829659318
C            1.40120827566329        0.58936107373184       -0.29575566751332
H            0.48748929388634        2.54946148101190       -0.53189743647375
H           -1.78657492331914        1.95260822698826       -0.12893358982962
H           -2.21822281225749       -0.16068595361777        1.06788093778900
H           -2.00597182065564       -0.62662983772329       -0.63189025272829
H            0.09768698172976       -0.91061730832882        1.66703615774891
H           -0.61789642963263       -2.22231056684740        0.69501081780132
H            1.73956071149451       -1.66252715574528       -0.12012039289764
H            0.52177255701802       -1.23502404725876       -1.34965299158546
H            1.98438136433479        0.70932146934394        0.61648778660824
H            2.04734406944222        0.74300864733954       -1.15706128107394

 Bond Distances (Angstroems)
 ---------------------------
C1-C2=1.3234         C1-C6=1.4863         C1-H7=1.0838         C2-C1=1.3234         C2-C3=1.4863         C2-H8=1.0838         
C3-C2=1.4863         C3-C4=1.7172         C3-H9=1.0878         C3-H10=1.0893        C4-C3=1.7172         C4-C5=1.5009         
C4-H11=1.0860        C4-H12=1.0873        C5-C4=1.5009         C5-C6=1.7171         C5-H13=1.0874        C5-H14=1.0860        
C6-C1=1.4863         C6-C5=1.7171         C6-H15=1.0893        C6-H16=1.0876        H7-C1=1.0838         H8-C2=1.0838         
H9-C3=1.0878         H10-C3=1.0893        H11-C4=1.0860        H12-C4=1.0873        H13-C5=1.0874        H14-C5=1.0860        
H15-C6=1.0893        H16-C6=1.0876        
 C  H  Rav=1.0868 sigma=0.0018  Rmin=1.0838  Rmax=1.0893    10
 C  C  Rav=1.5385 sigma=0.1396  Rmin=1.3234  Rmax=1.7172     6

 selected bond angles (degree)
 --------------------
C6-C1-C2=125.91                H7-C1-C2=119.33                H7-C1-C6=114.75                C3-C2-C1=125.90                
H8-C2-C1=119.33                H8-C2-C3=114.77                C4-C3-C2=110.61                H9-C3-C2=111.45                
H9-C3-C4=107.27                H10-C3-C2=111.13               H10-C3-C4=106.94               H10-C3-H9=109.25               
C5-C4-C3=108.19                H11-C4-C3=106.94               H11-C4-C5=111.87               H12-C4-C3=106.88               
H12-C4-C5=112.47               H12-C4-H11=110.21              C6-C5-C4=108.20                H13-C5-C4=112.46               
H13-C5-C6=106.90               H14-C5-C4=111.86               H14-C5-C6=106.91               H14-C5-H13=110.20              
C5-C6-C1=110.65                H15-C6-C1=111.13               H15-C6-C5=106.92               H16-C6-C1=111.45               
H16-C6-C5=107.27               H16-C6-H15=109.24              

 selected dihedral angles (degree)
 ---------------------------------
C3-C2-C1-C6=359.52            C3-C2-C1-H7=180.26            H8-C2-C1-C6=180.26            H8-C2-C1-H7=  1.01            
C4-C3-C2-C1= 15.15            C4-C3-C2-H8=194.43            H9-C3-C2-C1=134.39            H9-C3-C2-H8=313.67            
H10-C3-C2-C1=256.52           H10-C3-C2-H8= 75.80           C5-C4-C3-C2=312.47            C5-C4-C3-H9=190.72            
C5-C4-C3-H10= 73.61           H11-C4-C3-C2= 73.12           H11-C4-C3-H9=311.38           H11-C4-C3-H10=194.27          
H12-C4-C3-C2=191.13           H12-C4-C3-H9= 69.39           H12-C4-C3-H10=312.28          C6-C5-C4-C3= 61.49            
C6-C5-C4-H11=303.96           C6-C5-C4-H12=179.30           H13-C5-C4-C3=179.34           H13-C5-C4-H11= 61.81          
H13-C5-C4-H12=297.15          H14-C5-C4-C3=303.99           H14-C5-C4-H11=186.46          H14-C5-C4-H12= 61.80          
C5-C6-C1-C2= 14.94            C5-C6-C1-H7=194.23            H15-C6-C1-C2=256.32           H15-C6-C1-H7= 75.60           
H16-C6-C1-C2=134.21           H16-C6-C1-H7=313.50           C1-C6-C5-C4=312.66            C1-C6-C5-H13=191.30           
C1-C6-C5-H14= 73.29           H15-C6-C5-C4= 73.81           H15-C6-C5-H13=312.46          H15-C6-C5-H14=194.44          
H16-C6-C5-C4=190.89           H16-C6-C5-H13= 69.54          H16-C6-C5-H14=311.53          
           -------------------------------------------------
          |                Final Singlepoint                |
           -------------------------------------------------

          ...................................................
          :                      SETUP                      :
          :.................................................:
          :  # basis functions                  34          :
          :  # atomic orbitals                  34          :
          :  # shells                           22          :
          :  # electrons                        34          :
          :  max. iterations                   250          :
          :  Hamiltonian                  GFN2-xTB          :
          :  restarted?                      false          :
          :  GBSA solvation                  false          :
          :  PC potential                    false          :
          :  electronic temp.          300.0000000     K    :
          :  accuracy                    1.0000000          :
          :  -> integral cutoff          0.2500000E+02      :
          :  -> integral neglect         0.1000000E-07      :
          :  -> SCF convergence          0.1000000E-05 Eh   :
          :  -> wf. convergence          0.1000000E-03 e    :
          :  Broyden damping             0.4000000          :
          ...................................................

 iter      E             dE          RMSdq      gap      omega  full diag
   1    -18.1874309 -0.181874E+02  0.548E-05    5.18       0.0  T
   2    -18.1874309 -0.941469E-12  0.335E-05    5.18     746.6  T
   3    -18.1874309  0.239098E-11  0.244E-05    5.18    1023.0  T

   *** convergence criteria satisfied after 3 iterations ***

         #    Occupation            Energy/Eh            Energy/eV
      -------------------------------------------------------------
         1        2.0000           -0.6199423             -16.8695
       ...           ...                  ...                  ...
        11        2.0000           -0.4676171             -12.7245
        12        2.0000           -0.4646221             -12.6430
        13        2.0000           -0.4485268             -12.2050
        14        2.0000           -0.4348354             -11.8325
        15        2.0000           -0.4124911             -11.2245
        16        2.0000           -0.4012267             -10.9179
        17        2.0000           -0.3799630             -10.3393 (HOMO)
        18                         -0.1894628              -5.1555 (LUMO)
        19                         -0.0590268              -1.6062
        20                         -0.0374244              -1.0184
        21                          0.1181307               3.2145
        22                          0.1289685               3.5094
       ...                                ...                  ...
        34                          0.6419356              17.4680
      -------------------------------------------------------------
                  HL-Gap            0.1905001 Eh            5.1838 eV
             Fermi-level           -0.2847129 Eh           -7.7474 eV

 SCC (total)                   0 d,  0 h,  0 min,  0.004 sec
 SCC setup                      ...        0 min,  0.000 sec (  4.604%)
 Dispersion                     ...        0 min,  0.000 sec (  1.900%)
 classical contributions        ...        0 min,  0.000 sec (  0.324%)
 integral evaluation            ...        0 min,  0.000 sec (  9.914%)
 iterations                     ...        0 min,  0.002 sec ( 50.010%)
 molecular gradient             ...        0 min,  0.001 sec ( 25.274%)
 printout                       ...        0 min,  0.000 sec (  7.442%)

         :::::::::::::::::::::::::::::::::::::::::::::::::::::
         ::                     SUMMARY                     ::
         :::::::::::::::::::::::::::::::::::::::::::::::::::::
         :: total energy             -17.903146877807 Eh    ::
         :: gradient norm              0.000427110237 Eh/a0 ::
         :: HOMO-LUMO gap              5.183772400553 eV    ::
         ::.................................................::
         :: SCC energy               -18.187430858039 Eh    ::
         :: -> isotropic ES            0.002514002471 Eh    ::
         :: -> anisotropic ES          0.005706255598 Eh    ::
         :: -> anisotropic XC          0.012361308019 Eh    ::
         :: -> dispersion             -0.009896679994 Eh    ::
         :: repulsion energy           0.283194050875 Eh    ::
         :: add. restraining           0.001066940043 Eh    ::
         :: total charge              -0.000000000000 e     ::
         :::::::::::::::::::::::::::::::::::::::::::::::::::::

           -------------------------------------------------
          |                Property Printout                |
           -------------------------------------------------

    * Orbital Energies and Occupations

         #    Occupation            Energy/Eh            Energy/eV
      -------------------------------------------------------------
         1        2.0000           -0.6199423             -16.8695
       ...           ...                  ...                  ...
         5        2.0000           -0.5571309             -15.1603
         6        2.0000           -0.5232646             -14.2388
         7        2.0000           -0.5140521             -13.9881
         8        2.0000           -0.4929641             -13.4142
         9        2.0000           -0.4820877             -13.1183
        10        2.0000           -0.4689450             -12.7606
        11        2.0000           -0.4676171             -12.7245
        12        2.0000           -0.4646221             -12.6430
        13        2.0000           -0.4485268             -12.2050
        14        2.0000           -0.4348354             -11.8325
        15        2.0000           -0.4124911             -11.2245
        16        2.0000           -0.4012267             -10.9179
        17        2.0000           -0.3799630             -10.3393 (HOMO)
        18                         -0.1894628              -5.1555 (LUMO)
        19                         -0.0590268              -1.6062
        20                         -0.0374244              -1.0184
        21                          0.1181307               3.2145
        22                          0.1289685               3.5094
        23                          0.1531517               4.1675
        24                          0.1559771               4.2444
        25                          0.1702253               4.6321
        26                          0.1880731               5.1177
        27                          0.2240172               6.0958
        28                          0.2273834               6.1874
       ...                                ...                  ...
        34                          0.6419356              17.4680
      -------------------------------------------------------------
                  HL-Gap            0.1905001 Eh            5.1838 eV
             Fermi-level           -0.2847129 Eh           -7.7474 eV

     #   Z          covCN         q      C6AA      α(0)
     1   6 C        2.888    -0.038    28.945     8.821
     2   6 C        2.888    -0.038    28.946     8.821
     3   6 C        3.747    -0.062    21.769     6.655
     4   6 C        3.743    -0.059    21.714     6.648
     5   6 C        3.743    -0.059    21.714     6.648
     6   6 C        3.747    -0.062    21.769     6.655
     7   1 H        0.925     0.022     2.700     2.570
     8   1 H        0.925     0.022     2.700     2.570
     9   1 H        0.925     0.035     2.518     2.481
    10   1 H        0.925     0.040     2.455     2.450
    11   1 H        0.925     0.035     2.517     2.481
    12   1 H        0.925     0.028     2.613     2.528
    13   1 H        0.925     0.028     2.613     2.528
    14   1 H        0.925     0.035     2.517     2.481
    15   1 H        0.925     0.039     2.456     2.451
    16   1 H        0.925     0.035     2.517     2.481

 Mol. C6AA /au·bohr⁶  :       2055.857793
 Mol. C8AA /au·bohr⁸  :      45570.766435
 Mol. α(0) /au        :         69.266767


Wiberg/Mayer (AO) data.
largest (>0.10) Wiberg bond orders for each atom

 ---------------------------------------------------------------------------
     #   Z sym  total        # sym  WBO       # sym  WBO       # sym  WBO
 ---------------------------------------------------------------------------
     1   6 C    3.991 --     2 C    1.922     6 C    1.039     7 H    0.963
     2   6 C    3.991 --     1 C    1.922     3 C    1.039     8 H    0.963
     3   6 C    3.996 --     2 C    1.039     9 H    0.973     4 C    0.970
                            10 H    0.965
     4   6 C    3.996 --     5 C    1.037    11 H    0.983    12 H    0.979
                             3 C    0.970
     5   6 C    3.996 --     4 C    1.037    14 H    0.983    13 H    0.979
                             6 C    0.970
     6   6 C    3.996 --     1 C    1.039    16 H    0.973     5 C    0.970
                            15 H    0.965
     7   1 H    1.000 --     1 C    0.963
     8   1 H    1.000 --     2 C    0.963
     9   1 H    0.999 --     3 C    0.973
    10   1 H    0.998 --     3 C    0.965
    11   1 H    0.999 --     4 C    0.983
    12   1 H    0.999 --     4 C    0.979
    13   1 H    0.999 --     5 C    0.979
    14   1 H    0.999 --     5 C    0.983
    15   1 H    0.998 --     6 C    0.965
    16   1 H    0.999 --     6 C    0.973
 ---------------------------------------------------------------------------

Topologies differ in total number of bonds
Writing topology from bond orders to xtbtopo.mol

molecular dipole:
                 x           y           z       tot (Debye)
 q only:        0.031      -0.106       0.015
   full:        0.033      -0.112       0.016       0.300
molecular quadrupole (traceless):
                xx          xy          yy          xz          yz          zz
 q only:        0.706       0.293      -0.313      -0.163      -0.048      -0.393
  q+dip:        1.453       0.543      -0.307      -0.039      -0.113      -1.146
   full:        0.992       0.414      -0.340      -0.027      -0.036      -0.651

           -------------------------------------------------
          |                Geometry Summary                 |
           -------------------------------------------------

      molecular mass/u    :       82.1438229
   center of mass at/Å    :       -0.0334169       0.1156903      -0.0169952
  moments of inertia/u·Å² :        0.1131989E+03   0.1154686E+03   0.2069350E+03
rotational constants/cm⁻¹ :        0.1489205E+00   0.1459932E+00   0.8146342E-01

 * 12 selected distances

     #   Z          #   Z                                           value/Å
     1   6 C        2   6 C                                       1.3234155
     4   6 C        5   6 C                                       1.5008801 (max)
     1   6 C        7   1 H                                       1.0838238
     2   6 C        8   1 H                                       1.0837959 (min)
     3   6 C        9   1 H                                       1.0877710
     3   6 C       10   1 H                                       1.0893407
     4   6 C       11   1 H                                       1.0860340
     4   6 C       12   1 H                                       1.0873203
     5   6 C       13   1 H                                       1.0873721
     5   6 C       14   1 H                                       1.0860234
     6   6 C       15   1 H                                       1.0893437
     6   6 C       16   1 H                                       1.0876335

 * 2 distinct bonds (by element types)

   Z      Z             #   av. dist./Å        max./Å        min./Å
   1 H    6 C          10     1.0868458     1.0893437     1.0837959
   6 C    6 C           2     1.4121478     1.5008801     1.3234155


optimized geometry written to: xtbopt.xyz


           -------------------------------------------------
          | TOTAL ENERGY              -17.903146877807 Eh   |
          | GRADIENT NORM               0.000427110237 Eh/α |
          | HOMO-LUMO GAP               5.183772400553 eV   |
           -------------------------------------------------

------------------------------------------------------------------------
 * finished run on 2025/05/23 at 11:05:30.661     
------------------------------------------------------------------------
 total:
 * wall-time:     0 d,  0 h,  0 min,  0.166 sec
 *  cpu-time:     0 d,  0 h,  0 min,  2.346 sec
 * ratio c/w:    14.091 speedup
 SCF:
 * wall-time:     0 d,  0 h,  0 min,  0.009 sec
 *  cpu-time:     0 d,  0 h,  0 min,  0.133 sec
 * ratio c/w:    14.133 speedup
 ANC optimizer:
 * wall-time:     0 d,  0 h,  0 min,  0.147 sec
 *  cpu-time:     0 d,  0 h,  0 min,  2.092 sec
 * ratio c/w:    14.237 speedup

