      -----------------------------------------------------------      
     |                   =====================                   |     
     |                           x T B                           |     
     |                   =====================                   |     
     |                         S. Grimme                         |     
     |          Mulliken Center for Theoretical Chemistry        |     
     |                    University of Bonn                     |     
      -----------------------------------------------------------      

   * xtb version 6.6.1 (8d0f1dd) compiled by 'conda@1efc2f54142f' on 2023-08-01

   xtb is free software: you can redistribute it and/or modify it under
   the terms of the GNU Lesser General Public License as published by
   the Free Software Foundation, either version 3 of the License, or
   (at your option) any later version.
   
   xtb is distributed in the hope that it will be useful,
   but WITHOUT ANY WARRANTY; without even the implied warranty of
   MERCHANTABILITY or FITNESS FOR A PARTICULAR PURPOSE.  See the
   GNU Lesser General Public License for more details.
   
   Cite this work as:
   * C. Bannwarth, E. Caldeweyher, S. Ehlert, A. Hansen, P. Pracht,
     J. Seibert, S. Spicher, S. Grimme, WIREs Comput. Mol. Sci., 2020, 11,
     e01493. DOI: 10.1002/wcms.1493
   
   for GFN2-xTB:
   * C. Bannwarth, S. Ehlert and S. Grimme., J. Chem. Theory Comput., 2019,
     15, 1652-1671. DOI: 10.1021/acs.jctc.8b01176
   for GFN1-xTB:
   * S. Grimme, C. Bannwarth, P. Shushkov, J. Chem. Theory Comput., 2017,
     13, 1989-2009. DOI: 10.1021/acs.jctc.7b00118
   for GFN0-xTB:
   * P. Pracht, E. Caldeweyher, S. Ehlert, S. Grimme, ChemRxiv, 2019, preprint.
     DOI: 10.26434/chemrxiv.8326202.v1
   for GFN-FF:
   * S. Spicher and S. Grimme, Angew. Chem. Int. Ed., 2020, 59, 15665-15673.
     DOI: 10.1002/anie.202004239
   
   for ALPB and GBSA implicit solvation:
   * S. Ehlert, M. Stahn, S. Spicher, S. Grimme, J. Chem. Theory Comput.,
     2021, 17, 4250-4261. DOI: 10.1021/acs.jctc.1c00471
   
   for DFT-D4:
   * E. Caldeweyher, C. Bannwarth and S. Grimme, J. Chem. Phys., 2017,
     147, 034112. DOI: 10.1063/1.4993215
   * E. Caldeweyher, S. Ehlert, A. Hansen, H. Neugebauer, S. Spicher,
     C. Bannwarth and S. Grimme, J. Chem. Phys., 2019, 150, 154122.
     DOI: 10.1063/1.5090222
   * E. Caldeweyher, J.-M. Mewes, S. Ehlert and S. Grimme, Phys. Chem. Chem. Phys.
     2020, 22, 8499-8512. DOI: 10.1039/D0CP00502A
   
   for sTDA-xTB:
   * S. Grimme and C. Bannwarth, J. Chem. Phys., 2016, 145, 054103.
     DOI: 10.1063/1.4959605
   
   in the mass-spec context:
   * V. Asgeirsson, C. Bauer and S. Grimme, Chem. Sci., 2017, 8, 4879.
     DOI: 10.1039/c7sc00601b
   * J. Koopman and S. Grimme, ACS Omega 2019, 4, 12, 15120-15133.
     DOI: 10.1021/acsomega.9b02011
   
   for metadynamics refer to:
   * S. Grimme, J. Chem. Theory Comput., 2019, 155, 2847-2862
     DOI: 10.1021/acs.jctc.9b00143
   
   for SPH calculations refer to:
   * S. Spicher and S. Grimme, J. Chem. Theory Comput., 2021, 17, 1701-1714
     DOI: 10.1021/acs.jctc.0c01306
   
   with help from (in alphabetical order)
   P. Atkinson, C. Bannwarth, F. Bohle, G. Brandenburg, E. Caldeweyher
   M. Checinski, S. Dohm, S. Ehlert, S. Ehrlich, I. Gerasimov, C. Hölzer
   A. Katbashev, J. Koopman, C. Lavigne, S. Lehtola, F. März, M. Müller,
   F. Musil, H. Neugebauer, J. Pisarek, C. Plett, P. Pracht, F. Pultar,
   J. Seibert, P. Shushkov, S. Spicher, M. Stahn, M. Steiner, T. Strunk,
   J. Stückrath, T. Rose, and J. Unsleber
   
 * started run on 2025/05/23 at 11:05:31.801     

           -------------------------------------------------
          |                Calculation Setup                |
           -------------------------------------------------

          program call               : /gpfs/fs1/home/copan/code/autode-practice/.pixi/envs/default/bin/xtb path_opt4_xtb.xyz --chrg 0 --uhf 0 --opt --input xcontrol_path_opt4_xtb
          hostname                   : beboplogin4.lcrc.anl.gov
          coordinate file            : path_opt4_xtb.xyz
          omp threads                :                     8

   ID    Z sym.   atoms
    1    6 C      1-6
    2    1 H      7-16
constraining bond 3 4 to    1.8873000 Å, actual value:    1.8373274 Å
constraining bond 5 6 to    1.8871000 Å, actual value:    1.8371274 Å

           -------------------------------------------------
          |                 G F N 2 - x T B                 |
           -------------------------------------------------

        Reference                      10.1021/acs.jctc.8b01176
      * Hamiltonian:
        H0-scaling (s, p, d)           1.850000    2.230000    2.230000
        zeta-weighting                 0.500000
      * Dispersion:
        s8                             2.700000
        a1                             0.520000
        a2                             5.000000
        s9                             5.000000
      * Repulsion:
        kExp                           1.500000    1.000000
        rExp                           1.000000
      * Coulomb:
        alpha                          2.000000
        third order                    shell-resolved
        anisotropic                    true
        a3                             3.000000
        a5                             4.000000
        cn-shift                       1.200000
        cn-exp                         4.000000
        max-rad                        5.000000


          ...................................................
          :                      SETUP                      :
          :.................................................:
          :  # basis functions                  34          :
          :  # atomic orbitals                  34          :
          :  # shells                           22          :
          :  # electrons                        34          :
          :  max. iterations                   250          :
          :  Hamiltonian                  GFN2-xTB          :
          :  restarted?                      false          :
          :  GBSA solvation                  false          :
          :  PC potential                    false          :
          :  electronic temp.          300.0000000     K    :
          :  accuracy                    1.0000000          :
          :  -> integral cutoff          0.2500000E+02      :
          :  -> integral neglect         0.1000000E-07      :
          :  -> SCF convergence          0.1000000E-05 Eh   :
          :  -> wf. convergence          0.1000000E-03 e    :
          :  Broyden damping             0.4000000          :
          ...................................................

 iter      E             dE          RMSdq      gap      omega  full diag
   1    -18.1250643 -0.181251E+02  0.322E+00    5.19       0.0  T
   2    -18.1530790 -0.280147E-01  0.182E+00    5.12       1.0  T
   3    -18.1533511 -0.272171E-03  0.678E-01    5.08       1.0  T
   4    -18.1532295  0.121688E-03  0.240E-01    5.08       1.0  T
   5    -18.1540265 -0.797048E-03  0.559E-02    5.08       1.0  T
   6    -18.1540282 -0.171377E-05  0.163E-02    5.08       1.5  T
   7    -18.1540284 -0.174008E-06  0.219E-03    5.08      11.4  T
   8    -18.1540284 -0.199999E-08  0.561E-04    5.08      44.6  T
   9    -18.1540284 -0.222357E-08  0.256E-04    5.08      97.6  T

   *** convergence criteria satisfied after 9 iterations ***

         #    Occupation            Energy/Eh            Energy/eV
      -------------------------------------------------------------
         1        2.0000           -0.6163327             -16.7713
       ...           ...                  ...                  ...
        11        2.0000           -0.4684575             -12.7474
        12        2.0000           -0.4630891             -12.6013
        13        2.0000           -0.4431069             -12.0576
        14        2.0000           -0.4385861             -11.9345
        15        2.0000           -0.4062510             -11.0547
        16        2.0000           -0.3938093             -10.7161
        17        2.0000           -0.3784159             -10.2972 (HOMO)
        18                         -0.1918023              -5.2192 (LUMO)
        19                         -0.1262417              -3.4352
        20                         -0.1030236              -2.8034
        21                          0.1168138               3.1787
        22                          0.1332549               3.6261
       ...                                ...                  ...
        34                          0.6441674              17.5287
      -------------------------------------------------------------
                  HL-Gap            0.1866135 Eh            5.0780 eV
             Fermi-level           -0.2851091 Eh           -7.7582 eV

 SCC (total)                   0 d,  0 h,  0 min,  0.008 sec
 SCC setup                      ...        0 min,  0.000 sec (  3.155%)
 Dispersion                     ...        0 min,  0.000 sec (  1.424%)
 classical contributions        ...        0 min,  0.000 sec (  2.518%)
 integral evaluation            ...        0 min,  0.000 sec (  5.431%)
 iterations                     ...        0 min,  0.006 sec ( 71.095%)
 molecular gradient             ...        0 min,  0.001 sec ( 12.494%)
 printout                       ...        0 min,  0.000 sec (  3.631%)

         :::::::::::::::::::::::::::::::::::::::::::::::::::::
         ::                     SUMMARY                     ::
         :::::::::::::::::::::::::::::::::::::::::::::::::::::
         :: total energy             -17.834709894340 Eh    ::
         :: gradient norm              0.592491965594 Eh/a0 ::
         :: HOMO-LUMO gap              5.078012645284 eV    ::
         ::.................................................::
         :: SCC energy               -18.154028400577 Eh    ::
         :: -> isotropic ES            0.002526965081 Eh    ::
         :: -> anisotropic ES          0.006527589557 Eh    ::
         :: -> anisotropic XC          0.012784069768 Eh    ::
         :: -> dispersion             -0.009847900072 Eh    ::
         :: repulsion energy           0.283621899078 Eh    ::
         :: add. restraining           0.035671530643 Eh    ::
         :: total charge               0.000000000000 e     ::
         :::::::::::::::::::::::::::::::::::::::::::::::::::::

      ----------------------------------------------------------- 
     |                   =====================                   |
     |                        A N C O P T                        |
     |                   =====================                   |
     |               Approximate Normal Coordinate               |
     |                Rational Function Optimizer                |
      ----------------------------------------------------------- 

          ...................................................
          :                      SETUP                      :
          :.................................................:
          :   optimization level            normal          :
          :   max. optcycles                   200          :
          :   ANC micro-cycles                  20          :
          :   degrees of freedom                42          :
          :.................................................:
          :   RF solver                   davidson          :
          :   write xtbopt.log                true          :
          :   linear?                        false          :
          :   energy convergence         0.5000000E-05 Eh   :
          :   grad. convergence          0.1000000E-02 Eh/α :
          :   maxmium RF displ.          1.0000000          :
          :   Hlow (freq-cutoff)         0.1000000E-01      :
          :   Hmax (freq-cutoff)         5.0000000          :
          :   S6 in model hess.         20.0000000          :
          ...................................................

generating ANC from model Hessian ...
Using Lindh-Hessian (1995)
 Shifting diagonal of input Hessian by    6.5662694116530626E-002
 Lowest  eigenvalues of input Hessian
    0.010000    0.023010    0.036939    0.062353    0.000000    0.000000
    0.000000    0.000000    0.000000    0.000000    0.076705    0.078956
    0.081517    0.088785    0.091964    0.095483    0.099477    0.101040
 Highest eigenvalues
    1.226609    1.286047    1.542563    1.992171    8.592747    8.604261


........................................................................
.............................. CYCLE    1 ..............................
........................................................................

 iter      E             dE          RMSdq      gap      omega  full diag
   1    -18.1540284 -0.181540E+02  0.980E-05    5.08       0.0  T
   2    -18.1540284 -0.550315E-11  0.571E-05    5.08     437.5  T
   3    -18.1540284  0.829203E-11  0.404E-05    5.08     618.3  T
     SCC iter.                  ...        0 min,  0.002 sec
     gradient                   ...        0 min,  0.001 sec
 * total energy  :   -17.8347099 Eh     change       -0.4490168E-09 Eh
   gradient norm :     0.5924921 Eh/α   predicted     0.0000000E+00 (-100.00%)
   displ. norm   :     0.1261557 α      lambda       -0.6987800E-01
   maximum displ.:     0.1167992 α      in ANC's #41, #27, #11, ...

........................................................................
.............................. CYCLE    2 ..............................
........................................................................

 iter      E             dE          RMSdq      gap      omega  full diag
   1    -18.1409642 -0.181410E+02  0.119E-01    4.94       0.0  T
   2    -18.1409770 -0.127358E-04  0.715E-02    4.93       1.0  T
   3    -18.1409771 -0.993616E-07  0.136E-02    4.93       1.8  T
   4    -18.1409772 -0.175814E-06  0.171E-03    4.93      14.6  T
   5    -18.1409772 -0.112592E-08  0.107E-03    4.93      23.4  T
   6    -18.1409772 -0.723336E-08  0.514E-04    4.93      48.6  T
   7    -18.1409772 -0.786805E-09  0.130E-04    4.93     192.4  T
     SCC iter.                  ...        0 min,  0.003 sec
     gradient                   ...        0 min,  0.001 sec
 * total energy  :   -17.8482325 Eh     change       -0.1352260E-01 Eh
   gradient norm :     0.3647098 Eh/α   predicted    -0.3549506E-01 ( 162.49%)
   displ. norm   :     0.0459996 α      lambda       -0.1627050E-01
   maximum displ.:     0.0444980 α      in ANC's #41, #9, #2, ...

........................................................................
.............................. CYCLE    3 ..............................
........................................................................

 iter      E             dE          RMSdq      gap      omega  full diag
   1    -18.1437948 -0.181438E+02  0.647E-02    5.00       0.0  T
   2    -18.1437983 -0.348004E-05  0.375E-02    5.00       1.0  T
   3    -18.1437983 -0.915591E-08  0.758E-03    5.00       3.3  T
   4    -18.1437983 -0.481734E-07  0.672E-04    5.00      37.2  T
   5    -18.1437983 -0.235418E-08  0.401E-04    5.00      62.4  T
     SCC iter.                  ...        0 min,  0.003 sec
     gradient                   ...        0 min,  0.001 sec
 * total energy  :   -17.8564284 Eh     change       -0.8195872E-02 Eh
   gradient norm :     0.0031879 Eh/α   predicted    -0.8152469E-02 (  -0.53%)
   displ. norm   :     0.0166156 α      lambda       -0.3039424E-04
   maximum displ.:     0.0071634 α      in ANC's #2, #11, #9, ...

........................................................................
.............................. CYCLE    4 ..............................
........................................................................

 iter      E             dE          RMSdq      gap      omega  full diag
   1    -18.1429992 -0.181430E+02  0.171E-02    5.00       0.0  T
   2    -18.1429993 -0.537892E-07  0.988E-03    5.00       2.5  T
   3    -18.1429992  0.252174E-07  0.165E-03    5.00      15.1  T
   4    -18.1429993 -0.301727E-07  0.505E-04    5.00      49.5  T
   5    -18.1429993 -0.305090E-08  0.133E-04    5.00     188.4  T
     SCC iter.                  ...        0 min,  0.003 sec
     gradient                   ...        0 min,  0.001 sec
 * total energy  :   -17.8564508 Eh     change       -0.2242694E-04 Eh
   gradient norm :     0.0013205 Eh/α   predicted    -0.1520077E-04 ( -32.22%)
   displ. norm   :     0.0298213 α      lambda       -0.2076020E-04
   maximum displ.:     0.0189936 α      in ANC's #9, #11, #17, ...

........................................................................
.............................. CYCLE    5 ..............................
........................................................................

 iter      E             dE          RMSdq      gap      omega  full diag
   1    -18.1415274 -0.181415E+02  0.325E-02    5.01       0.0  T
   2    -18.1415276 -0.238061E-06  0.187E-02    5.01       1.3  T
   3    -18.1415275  0.141809E-06  0.381E-03    5.01       6.6  T
   4    -18.1415277 -0.167315E-06  0.937E-04    5.01      26.7  T
   5    -18.1415277 -0.120272E-07  0.219E-04    5.01     114.1  T
     SCC iter.                  ...        0 min,  0.003 sec
     gradient                   ...        0 min,  0.001 sec
 * total energy  :   -17.8564565 Eh     change       -0.5732892E-05 Eh
   gradient norm :     0.0018590 Eh/α   predicted    -0.1038316E-04 (  81.12%)
   displ. norm   :     0.0253931 α      lambda       -0.1246094E-04
   maximum displ.:     0.0246221 α      in ANC's #2, #1, #4, ...

........................................................................
.............................. CYCLE    6 ..............................
........................................................................

 iter      E             dE          RMSdq      gap      omega  full diag
   1    -18.1420242 -0.181420E+02  0.278E-02    5.01       0.0  T
   2    -18.1420242 -0.348925E-07  0.165E-02    5.01       1.5  T
   3    -18.1420241  0.163781E-06  0.343E-03    5.01       7.3  T
   4    -18.1420243 -0.186864E-06  0.336E-04    5.01      74.3  T
   5    -18.1420243 -0.261757E-09  0.205E-04    5.01     122.1  T
     SCC iter.                  ...        0 min,  0.003 sec
     gradient                   ...        0 min,  0.001 sec
 * total energy  :   -17.8564546 Eh     change        0.1975154E-05 Eh
   gradient norm :     0.0024444 Eh/α   predicted    -0.6231659E-05 (-415.50%)
   displ. norm   :     0.0149016 α      lambda       -0.1495560E-04
   maximum displ.:     0.0101968 α      in ANC's #1, #2, #11, ...

........................................................................
.............................. CYCLE    7 ..............................
........................................................................

 iter      E             dE          RMSdq      gap      omega  full diag
   1    -18.1424723 -0.181425E+02  0.176E-02    5.01       0.0  T
   2    -18.1424724 -0.262444E-07  0.104E-02    5.01       2.4  T
   3    -18.1424723  0.598820E-07  0.217E-03    5.01      11.5  T
   4    -18.1424724 -0.648184E-07  0.463E-04    5.01      54.0  T
   5    -18.1424724 -0.255058E-08  0.118E-04    5.01     211.6  T
     SCC iter.                  ...        0 min,  0.003 sec
     gradient                   ...        0 min,  0.001 sec
 * total energy  :   -17.8564616 Eh     change       -0.7050284E-05 Eh
   gradient norm :     0.0015075 Eh/α   predicted    -0.7480100E-05 (   6.10%)
   displ. norm   :     0.0548380 α      lambda       -0.2429033E-04
   maximum displ.:     0.0402326 α      in ANC's #1, #2, #11, ...

........................................................................
.............................. CYCLE    8 ..............................
........................................................................

 iter      E             dE          RMSdq      gap      omega  full diag
   1    -18.1430600 -0.181431E+02  0.724E-02    5.00       0.0  T
   2    -18.1430602 -0.232979E-06  0.428E-02    5.00       1.0  T
   3    -18.1430593  0.860969E-06  0.809E-03    5.00       3.1  T
   4    -18.1430603 -0.946777E-06  0.130E-03    5.00      19.2  T
   5    -18.1430603 -0.165788E-07  0.498E-04    5.00      50.2  T
   6    -18.1430603 -0.671537E-09  0.276E-04    5.00      90.7  T
     SCC iter.                  ...        0 min,  0.003 sec
     gradient                   ...        0 min,  0.001 sec
 * total energy  :   -17.8563822 Eh     change        0.7944316E-04 Eh
   gradient norm :     0.0062510 Eh/α   predicted    -0.1216199E-04 (-115.31%)
   displ. norm   :     0.0329851 α      lambda       -0.1112005E-03
   maximum displ.:     0.0226030 α      in ANC's #1, #2, #11, ...

........................................................................
.............................. CYCLE    9 ..............................
........................................................................

 iter      E             dE          RMSdq      gap      omega  full diag
   1    -18.1425788 -0.181426E+02  0.406E-02    5.01       0.0  T
   2    -18.1425789 -0.886548E-07  0.240E-02    5.01       1.0  T
   3    -18.1425786  0.249545E-06  0.439E-03    5.01       5.7  T
   4    -18.1425789 -0.273037E-06  0.838E-04    5.01      29.8  T
   5    -18.1425789 -0.752027E-08  0.277E-04    5.01      90.2  T
     SCC iter.                  ...        0 min,  0.003 sec
     gradient                   ...        0 min,  0.001 sec
 * total energy  :   -17.8564566 Eh     change       -0.7443792E-04 Eh
   gradient norm :     0.0021284 Eh/α   predicted    -0.5566021E-04 ( -25.23%)
   displ. norm   :     0.0188321 α      lambda       -0.2023548E-04
   maximum displ.:     0.0133512 α      in ANC's #2, #1, #9, ...

........................................................................
.............................. CYCLE   10 ..............................
........................................................................

 iter      E             dE          RMSdq      gap      omega  full diag
   1    -18.1423602 -0.181424E+02  0.205E-02    5.01       0.0  T
   2    -18.1423602 -0.215649E-07  0.121E-02    5.01       2.1  T
   3    -18.1423601  0.792085E-07  0.245E-03    5.01      10.2  T
   4    -18.1423602 -0.872200E-07  0.409E-04    5.01      61.2  T
   5    -18.1423602 -0.157136E-08  0.165E-04    5.01     151.5  T
     SCC iter.                  ...        0 min,  0.003 sec
     gradient                   ...        0 min,  0.001 sec
 * total energy  :   -17.8564670 Eh     change       -0.1044486E-04 Eh
   gradient norm :     0.0004566 Eh/α   predicted    -0.1012161E-04 (  -3.09%)
   displ. norm   :     0.0065964 α      lambda       -0.7605698E-06
   maximum displ.:     0.0046463 α      in ANC's #2, #9, #6, ...

........................................................................
.............................. CYCLE   11 ..............................
........................................................................

 iter      E             dE          RMSdq      gap      omega  full diag
   1    -18.1423753 -0.181424E+02  0.165E-03    5.01       0.0  T
   2    -18.1423753 -0.275943E-09  0.988E-04    5.01      25.3  T
   3    -18.1423753  0.748003E-09  0.249E-04    5.01     100.2  T
     SCC iter.                  ...        0 min,  0.002 sec
     gradient                   ...        0 min,  0.001 sec
 * total energy  :   -17.8564680 Eh     change       -0.9975278E-06 Eh
   gradient norm :     0.0005353 Eh/α   predicted    -0.3791019E-06 ( -62.00%)
   displ. norm   :     0.0441481 α      lambda       -0.4522386E-05
   maximum displ.:     0.0293725 α      in ANC's #2, #9, #6, ...

   *** GEOMETRY OPTIMIZATION CONVERGED AFTER 11 ITERATIONS ***

------------------------------------------------------------------------
 total energy gain   :        -0.0217581 Eh      -13.6534 kcal/mol
 total RMSD          :         0.0305186 a0        0.0161 Å
 total power (kW/mol):        -5.1932729 (step)-1002.6752 (real)
------------------------------------------------------------------------

 ANCopt (total)                0 d,  0 h,  0 min,  0.057 sec
 optimizer setup                ...        0 min,  0.000 sec (  0.311%)
 model hessian                  ...        0 min,  0.007 sec ( 12.880%)
 ANC generation                 ...        0 min,  0.000 sec (  0.796%)
 coordinate transformation      ...        0 min,  0.000 sec (  0.107%)
 single point calculation       ...        0 min,  0.043 sec ( 76.284%)
 optimization log               ...        0 min,  0.002 sec (  3.071%)
 hessian update                 ...        0 min,  0.000 sec (  0.211%)
 rational function              ...        0 min,  0.002 sec (  2.974%)

================
 final structure:
================
16
 xtb: 6.6.1 (8d0f1dd)
C            0.23221949621167        1.54712598290324       -0.31743261689450
C           -1.03000875840862        1.21653757384472       -0.08917069944335
C           -1.56934746641492       -0.12475864842624        0.21929147254400
C           -0.18047290469598       -1.29423000386804        0.69195136581501
C            0.88294667240007       -1.13887315786922       -0.33246573914130
C            1.41449729319552        0.65998163886217       -0.29951858542228
H            0.46468565321589        2.58523681472718       -0.53359805854083
H           -1.78599505233159        1.99400632884029       -0.13860397875516
H           -2.23899263588771       -0.12293768848026        1.07246254997953
H           -2.03936950934926       -0.59504506839700       -0.63930309904777
H            0.12218501210580       -0.98664053645459        1.68505643650297
H           -0.64772297669916       -2.27369168108373        0.69986898975063
H            1.79211369811510       -1.68950845222631       -0.11347376590998
H            0.54201893876681       -1.31463321416912       -1.34501460858700
H            1.99564381625820        0.75486602409868        0.61289390457740
H            2.04569872351818        0.78282408769823       -1.17297356742737

 Bond Distances (Angstroems)
 ---------------------------
C1-C2=1.3246         C1-C6=1.4782         C1-H7=1.0856         C2-C1=1.3246         C2-C3=1.4782         C2-H8=1.0855         
C3-C2=1.4782         C3-C4=1.8762         C3-H9=1.0846         C3-H10=1.0859        C4-C3=1.8762         C4-C5=1.4847         
C4-H11=1.0828        C4-H12=1.0852        C5-C4=1.4847         C5-C6=1.8760         C5-H13=1.0852        C5-H14=1.0828        
C6-C1=1.4782         C6-C5=1.8760         C6-H15=1.0859        C6-H16=1.0846        H7-C1=1.0856         H8-C2=1.0855         
H9-C3=1.0846         H10-C3=1.0859        H11-C4=1.0828        H12-C4=1.0852        H13-C5=1.0852        H14-C5=1.0828        
H15-C6=1.0859        H16-C6=1.0846        
 C  H  Rav=1.0848 sigma=0.0011  Rmin=1.0828  Rmax=1.0859    10
 C  C  Rav=1.5863 sigma=0.2122  Rmin=1.3246  Rmax=1.8762     6

 selected bond angles (degree)
 --------------------
C6-C1-C2=127.61                H7-C1-C2=118.49                H7-C1-C6=113.89                C3-C2-C1=127.60                
H8-C2-C1=118.49                H8-C2-C3=113.91                C4-C3-C2=110.37                H9-C3-C2=112.82                
H9-C3-C4=105.07                H10-C3-C2=112.70               H10-C3-C4=104.46               H10-C3-H9=110.82               
C5-C4-C3=106.93                H11-C4-C3=105.12               H11-C4-C5=113.76               H12-C4-C3=104.22               
H12-C4-C5=114.07               H12-C4-H11=111.72              C6-C5-C4=106.93                H13-C5-C4=114.06               
H13-C5-C6=104.22               H14-C5-C4=113.75               H14-C5-C6=105.15               H14-C5-H13=111.72              
C5-C6-C1=110.40                H15-C6-C1=112.69               H15-C6-C5=104.49               H16-C6-C1=112.81               
H16-C6-C5=105.03               H16-C6-H15=110.81              

 selected dihedral angles (degree)
 ---------------------------------
C3-C2-C1-C6=358.98            C3-C2-C1-H7=179.86            H8-C2-C1-C6=179.84            H8-C2-C1-H7=  0.72            
C4-C3-C2-C1= 14.61            C4-C3-C2-H8=193.78            H9-C3-C2-C1=131.81            H9-C3-C2-H8=310.98            
H10-C3-C2-C1=258.25           H10-C3-C2-H8= 77.42           C6-C5-C4-C3= 59.23            C6-C5-C4-H11=303.63           
C6-C5-C4-H12=173.88           H13-C5-C4-C3=173.87           H13-C5-C4-H11= 58.28          H13-C5-C4-H12=288.53          
H14-C5-C4-C3=303.61           H14-C5-C4-H11=188.02          H14-C5-C4-H12= 58.27          C5-C6-C1-C2= 14.45            
C5-C6-C1-H7=193.60            H15-C6-C1-C2=258.03           H15-C6-C1-H7= 77.18           H16-C6-C1-C2=131.62           
H16-C6-C1-H7=310.77           
           -------------------------------------------------
          |                Final Singlepoint                |
           -------------------------------------------------

          ...................................................
          :                      SETUP                      :
          :.................................................:
          :  # basis functions                  34          :
          :  # atomic orbitals                  34          :
          :  # shells                           22          :
          :  # electrons                        34          :
          :  max. iterations                   250          :
          :  Hamiltonian                  GFN2-xTB          :
          :  restarted?                      false          :
          :  GBSA solvation                  false          :
          :  PC potential                    false          :
          :  electronic temp.          300.0000000     K    :
          :  accuracy                    1.0000000          :
          :  -> integral cutoff          0.2500000E+02      :
          :  -> integral neglect         0.1000000E-07      :
          :  -> SCF convergence          0.1000000E-05 Eh   :
          :  -> wf. convergence          0.1000000E-03 e    :
          :  Broyden damping             0.4000000          :
          ...................................................

 iter      E             dE          RMSdq      gap      omega  full diag
   1    -18.1423753 -0.181424E+02  0.520E-05    5.01       0.0  T
   2    -18.1423753 -0.114397E-11  0.331E-05    5.01     755.9  T
   3    -18.1423753 -0.362732E-11  0.217E-05    5.01    1153.9  T

   *** convergence criteria satisfied after 3 iterations ***

         #    Occupation            Energy/Eh            Energy/eV
      -------------------------------------------------------------
         1        2.0000           -0.6155424             -16.7498
       ...           ...                  ...                  ...
        11        2.0000           -0.4683244             -12.7438
        12        2.0000           -0.4625599             -12.5869
        13        2.0000           -0.4417726             -12.0212
        14        2.0000           -0.4395359             -11.9604
        15        2.0000           -0.4039957             -10.9933
        16        2.0000           -0.3912531             -10.6465
        17        2.0000           -0.3773347             -10.2678 (HOMO)
        18                         -0.1932912              -5.2597 (LUMO)
        19                         -0.1429145              -3.8889
        20                         -0.1195619              -3.2534
        21                          0.1163800               3.1669
        22                          0.1336015               3.6355
       ...                                ...                  ...
        34                          0.6448849              17.5482
      -------------------------------------------------------------
                  HL-Gap            0.1840435 Eh            5.0081 eV
             Fermi-level           -0.2853129 Eh           -7.7638 eV

 SCC (total)                   0 d,  0 h,  0 min,  0.004 sec
 SCC setup                      ...        0 min,  0.000 sec (  4.667%)
 Dispersion                     ...        0 min,  0.000 sec (  1.653%)
 classical contributions        ...        0 min,  0.000 sec (  0.289%)
 integral evaluation            ...        0 min,  0.000 sec (  9.451%)
 iterations                     ...        0 min,  0.002 sec ( 51.279%)
 molecular gradient             ...        0 min,  0.001 sec ( 24.756%)
 printout                       ...        0 min,  0.000 sec (  7.384%)

         :::::::::::::::::::::::::::::::::::::::::::::::::::::
         ::                     SUMMARY                     ::
         :::::::::::::::::::::::::::::::::::::::::::::::::::::
         :: total energy             -17.856468040103 Eh    ::
         :: gradient norm              0.000535234041 Eh/a0 ::
         :: HOMO-LUMO gap              5.008077323481 eV    ::
         ::.................................................::
         :: SCC energy               -18.142375273406 Eh    ::
         :: -> isotropic ES            0.002529892552 Eh    ::
         :: -> anisotropic ES          0.006774998543 Eh    ::
         :: -> anisotropic XC          0.012914728841 Eh    ::
         :: -> dispersion             -0.009889515260 Eh    ::
         :: repulsion energy           0.284123550627 Eh    ::
         :: add. restraining           0.001757769843 Eh    ::
         :: total charge              -0.000000000000 e     ::
         :::::::::::::::::::::::::::::::::::::::::::::::::::::

           -------------------------------------------------
          |                Property Printout                |
           -------------------------------------------------

    * Orbital Energies and Occupations

         #    Occupation            Energy/Eh            Energy/eV
      -------------------------------------------------------------
         1        2.0000           -0.6155424             -16.7498
       ...           ...                  ...                  ...
         5        2.0000           -0.5519021             -15.0180
         6        2.0000           -0.5202373             -14.1564
         7        2.0000           -0.5093572             -13.8603
         8        2.0000           -0.4918803             -13.3847
         9        2.0000           -0.4766373             -12.9700
        10        2.0000           -0.4712410             -12.8231
        11        2.0000           -0.4683244             -12.7438
        12        2.0000           -0.4625599             -12.5869
        13        2.0000           -0.4417726             -12.0212
        14        2.0000           -0.4395359             -11.9604
        15        2.0000           -0.4039957             -10.9933
        16        2.0000           -0.3912531             -10.6465
        17        2.0000           -0.3773347             -10.2678 (HOMO)
        18                         -0.1932912              -5.2597 (LUMO)
        19                         -0.1429145              -3.8889
        20                         -0.1195619              -3.2534
        21                          0.1163800               3.1669
        22                          0.1336015               3.6355
        23                          0.1567611               4.2657
        24                          0.1697572               4.6193
        25                          0.1911919               5.2026
        26                          0.1983119               5.3963
        27                          0.2217134               6.0331
        28                          0.2353282               6.4036
       ...                                ...                  ...
        34                          0.6448849              17.5482
      -------------------------------------------------------------
                  HL-Gap            0.1840435 Eh            5.0081 eV
             Fermi-level           -0.2853129 Eh           -7.7638 eV

     #   Z          covCN         q      C6AA      α(0)
     1   6 C        2.887    -0.037    28.909     8.815
     2   6 C        2.887    -0.037    28.909     8.815
     3   6 C        3.561    -0.067    22.725     6.950
     4   6 C        3.558    -0.062    22.649     6.943
     5   6 C        3.559    -0.062    22.647     6.942
     6   6 C        3.562    -0.067    22.722     6.949
     7   1 H        0.925     0.024     2.668     2.555
     8   1 H        0.925     0.024     2.669     2.555
     9   1 H        0.925     0.036     2.508     2.476
    10   1 H        0.925     0.040     2.449     2.447
    11   1 H        0.925     0.036     2.509     2.477
    12   1 H        0.925     0.030     2.590     2.517
    13   1 H        0.925     0.030     2.590     2.517
    14   1 H        0.925     0.036     2.509     2.477
    15   1 H        0.925     0.040     2.449     2.447
    16   1 H        0.925     0.036     2.507     2.476

 Mol. C6AA /au·bohr⁶  :       2088.601834
 Mol. C8AA /au·bohr⁸  :      46437.359113
 Mol. α(0) /au        :         70.357238


Wiberg/Mayer (AO) data.
largest (>0.10) Wiberg bond orders for each atom

 ---------------------------------------------------------------------------
     #   Z sym  total        # sym  WBO       # sym  WBO       # sym  WBO
 ---------------------------------------------------------------------------
     1   6 C    3.992 --     2 C    1.914     6 C    1.050     7 H    0.957
     2   6 C    3.992 --     1 C    1.914     3 C    1.050     8 H    0.957
     3   6 C    3.993 --     2 C    1.050     9 H    0.974    10 H    0.966
                             4 C    0.941
     4   6 C    3.994 --     5 C    1.058    11 H    0.984    12 H    0.975
                             3 C    0.941
     5   6 C    3.994 --     4 C    1.058    14 H    0.984    13 H    0.975
                             6 C    0.941
     6   6 C    3.993 --     1 C    1.050    16 H    0.973    15 H    0.966
                             5 C    0.941
     7   1 H    0.999 --     1 C    0.957
     8   1 H    0.999 --     2 C    0.957
     9   1 H    0.999 --     3 C    0.974
    10   1 H    0.998 --     3 C    0.966
    11   1 H    0.999 --     4 C    0.984
    12   1 H    0.999 --     4 C    0.975
    13   1 H    0.999 --     5 C    0.975
    14   1 H    0.999 --     5 C    0.984
    15   1 H    0.998 --     6 C    0.966
    16   1 H    0.999 --     6 C    0.973
 ---------------------------------------------------------------------------

Topologies differ in total number of bonds
Writing topology from bond orders to xtbtopo.mol

molecular dipole:
                 x           y           z       tot (Debye)
 q only:        0.025      -0.086       0.012
   full:        0.027      -0.091       0.013       0.245
molecular quadrupole (traceless):
                xx          xy          yy          xz          yz          zz
 q only:        0.665       0.251      -0.229      -0.169      -0.070      -0.437
  q+dip:        1.436       0.445      -0.010      -0.017      -0.195      -1.426
   full:        0.961       0.330      -0.102      -0.003      -0.099      -0.859

           -------------------------------------------------
          |                Geometry Summary                 |
           -------------------------------------------------

      molecular mass/u    :       82.1438229
   center of mass at/Å    :       -0.0335073       0.1159710      -0.0170576
  moments of inertia/u·Å² :        0.1157618E+03   0.1254995E+03   0.2188388E+03
rotational constants/cm⁻¹ :        0.1456235E+00   0.1343243E+00   0.7703218E-01

 * 12 selected distances

     #   Z          #   Z                                           value/Å
     1   6 C        2   6 C                                       1.3246179
     4   6 C        5   6 C                                       1.4847315 (max)
     1   6 C        7   1 H                                       1.0855608
     2   6 C        8   1 H                                       1.0855491
     3   6 C        9   1 H                                       1.0845871
     3   6 C       10   1 H                                       1.0859442
     4   6 C       11   1 H                                       1.0828070
     4   6 C       12   1 H                                       1.0852330
     5   6 C       13   1 H                                       1.0852380
     5   6 C       14   1 H                                       1.0827644 (min)
     6   6 C       15   1 H                                       1.0859241
     6   6 C       16   1 H                                       1.0846333

 * 2 distinct bonds (by element types)

   Z      Z             #   av. dist./Å        max./Å        min./Å
   1 H    6 C          10     1.0848241     1.0859442     1.0827644
   6 C    6 C           2     1.4046747     1.4847315     1.3246179


optimized geometry written to: xtbopt.xyz


           -------------------------------------------------
          | TOTAL ENERGY              -17.856468040103 Eh   |
          | GRADIENT NORM               0.000535234041 Eh/α |
          | HOMO-LUMO GAP               5.008077323481 eV   |
           -------------------------------------------------

------------------------------------------------------------------------
 * finished run on 2025/05/23 at 11:05:31.881     
------------------------------------------------------------------------
 total:
 * wall-time:     0 d,  0 h,  0 min,  0.080 sec
 *  cpu-time:     0 d,  0 h,  0 min,  1.110 sec
 * ratio c/w:    13.882 speedup
 SCF:
 * wall-time:     0 d,  0 h,  0 min,  0.008 sec
 *  cpu-time:     0 d,  0 h,  0 min,  0.131 sec
 * ratio c/w:    15.872 speedup
 ANC optimizer:
 * wall-time:     0 d,  0 h,  0 min,  0.062 sec
 *  cpu-time:     0 d,  0 h,  0 min,  0.879 sec
 * ratio c/w:    14.184 speedup

