      -----------------------------------------------------------      
     |                   =====================                   |     
     |                           x T B                           |     
     |                   =====================                   |     
     |                         S. Grimme                         |     
     |          Mulliken Center for Theoretical Chemistry        |     
     |                    University of Bonn                     |     
      -----------------------------------------------------------      

   * xtb version 6.6.1 (8d0f1dd) compiled by 'conda@1efc2f54142f' on 2023-08-01

   xtb is free software: you can redistribute it and/or modify it under
   the terms of the GNU Lesser General Public License as published by
   the Free Software Foundation, either version 3 of the License, or
   (at your option) any later version.
   
   xtb is distributed in the hope that it will be useful,
   but WITHOUT ANY WARRANTY; without even the implied warranty of
   MERCHANTABILITY or FITNESS FOR A PARTICULAR PURPOSE.  See the
   GNU Lesser General Public License for more details.
   
   Cite this work as:
   * C. Bannwarth, E. Caldeweyher, S. Ehlert, A. Hansen, P. Pracht,
     J. Seibert, S. Spicher, S. Grimme, WIREs Comput. Mol. Sci., 2020, 11,
     e01493. DOI: 10.1002/wcms.1493
   
   for GFN2-xTB:
   * C. Bannwarth, S. Ehlert and S. Grimme., J. Chem. Theory Comput., 2019,
     15, 1652-1671. DOI: 10.1021/acs.jctc.8b01176
   for GFN1-xTB:
   * S. Grimme, C. Bannwarth, P. Shushkov, J. Chem. Theory Comput., 2017,
     13, 1989-2009. DOI: 10.1021/acs.jctc.7b00118
   for GFN0-xTB:
   * P. Pracht, E. Caldeweyher, S. Ehlert, S. Grimme, ChemRxiv, 2019, preprint.
     DOI: 10.26434/chemrxiv.8326202.v1
   for GFN-FF:
   * S. Spicher and S. Grimme, Angew. Chem. Int. Ed., 2020, 59, 15665-15673.
     DOI: 10.1002/anie.202004239
   
   for ALPB and GBSA implicit solvation:
   * S. Ehlert, M. Stahn, S. Spicher, S. Grimme, J. Chem. Theory Comput.,
     2021, 17, 4250-4261. DOI: 10.1021/acs.jctc.1c00471
   
   for DFT-D4:
   * E. Caldeweyher, C. Bannwarth and S. Grimme, J. Chem. Phys., 2017,
     147, 034112. DOI: 10.1063/1.4993215
   * E. Caldeweyher, S. Ehlert, A. Hansen, H. Neugebauer, S. Spicher,
     C. Bannwarth and S. Grimme, J. Chem. Phys., 2019, 150, 154122.
     DOI: 10.1063/1.5090222
   * E. Caldeweyher, J.-M. Mewes, S. Ehlert and S. Grimme, Phys. Chem. Chem. Phys.
     2020, 22, 8499-8512. DOI: 10.1039/D0CP00502A
   
   for sTDA-xTB:
   * S. Grimme and C. Bannwarth, J. Chem. Phys., 2016, 145, 054103.
     DOI: 10.1063/1.4959605
   
   in the mass-spec context:
   * V. Asgeirsson, C. Bauer and S. Grimme, Chem. Sci., 2017, 8, 4879.
     DOI: 10.1039/c7sc00601b
   * J. Koopman and S. Grimme, ACS Omega 2019, 4, 12, 15120-15133.
     DOI: 10.1021/acsomega.9b02011
   
   for metadynamics refer to:
   * S. Grimme, J. Chem. Theory Comput., 2019, 155, 2847-2862
     DOI: 10.1021/acs.jctc.9b00143
   
   for SPH calculations refer to:
   * S. Spicher and S. Grimme, J. Chem. Theory Comput., 2021, 17, 1701-1714
     DOI: 10.1021/acs.jctc.0c01306
   
   with help from (in alphabetical order)
   P. Atkinson, C. Bannwarth, F. Bohle, G. Brandenburg, E. Caldeweyher
   M. Checinski, S. Dohm, S. Ehlert, S. Ehrlich, I. Gerasimov, C. Hölzer
   A. Katbashev, J. Koopman, C. Lavigne, S. Lehtola, F. März, M. Müller,
   F. Musil, H. Neugebauer, J. Pisarek, C. Plett, P. Pracht, F. Pultar,
   J. Seibert, P. Shushkov, S. Spicher, M. Stahn, M. Steiner, T. Strunk,
   J. Stückrath, T. Rose, and J. Unsleber
   
 * started run on 2025/05/23 at 11:05:33.560     

           -------------------------------------------------
          |                Calculation Setup                |
           -------------------------------------------------

          program call               : /gpfs/fs1/home/copan/code/autode-practice/.pixi/envs/default/bin/xtb path_opt11_xtb.xyz --chrg 0 --uhf 0 --opt --input xcontrol_path_opt11_xtb
          hostname                   : beboplogin4.lcrc.anl.gov
          coordinate file            : path_opt11_xtb.xyz
          omp threads                :                     8

   ID    Z sym.   atoms
    1    6 C      1-6
    2    1 H      7-16
constraining bond 3 4 to    2.1597000 Å, actual value:    2.1096847 Å
constraining bond 5 6 to    2.1595000 Å, actual value:    2.1094555 Å

molecular fragmentation (1/2 indicates fragments):
1112211111222211
# atoms in fragment 1/2:    10     6
 fragment masses (1/2) :       54.09       28.05
CMA distance (Bohr)    :   4.599
constraining FC (au)   :  2.0000

           -------------------------------------------------
          |                 G F N 2 - x T B                 |
           -------------------------------------------------

        Reference                      10.1021/acs.jctc.8b01176
      * Hamiltonian:
        H0-scaling (s, p, d)           1.850000    2.230000    2.230000
        zeta-weighting                 0.500000
      * Dispersion:
        s8                             2.700000
        a1                             0.520000
        a2                             5.000000
        s9                             5.000000
      * Repulsion:
        kExp                           1.500000    1.000000
        rExp                           1.000000
      * Coulomb:
        alpha                          2.000000
        third order                    shell-resolved
        anisotropic                    true
        a3                             3.000000
        a5                             4.000000
        cn-shift                       1.200000
        cn-exp                         4.000000
        max-rad                        5.000000


          ...................................................
          :                      SETUP                      :
          :.................................................:
          :  # basis functions                  34          :
          :  # atomic orbitals                  34          :
          :  # shells                           22          :
          :  # electrons                        34          :
          :  max. iterations                   250          :
          :  Hamiltonian                  GFN2-xTB          :
          :  restarted?                      false          :
          :  GBSA solvation                  false          :
          :  PC potential                    false          :
          :  electronic temp.          300.0000000     K    :
          :  accuracy                    1.0000000          :
          :  -> integral cutoff          0.2500000E+02      :
          :  -> integral neglect         0.1000000E-07      :
          :  -> SCF convergence          0.1000000E-05 Eh   :
          :  -> wf. convergence          0.1000000E-03 e    :
          :  Broyden damping             0.4000000          :
          ...................................................

 iter      E             dE          RMSdq      gap      omega  full diag
   1    -18.0458144 -0.180458E+02  0.332E+00    3.46       0.0  T
   2    -18.0720752 -0.262609E-01  0.188E+00    3.44       1.0  T
   3    -18.0626610  0.941423E-02  0.107E+00    3.47       1.0  T
   4    -18.0693302 -0.666915E-02  0.624E-01    3.46       1.0  T
   5    -18.0746912 -0.536107E-02  0.636E-02    3.46       1.0  T
   6    -18.0746924 -0.115944E-05  0.197E-02    3.46       1.3  T
   7    -18.0746924 -0.415753E-07  0.539E-03    3.46       4.6  T
   8    -18.0746927 -0.294194E-06  0.277E-03    3.46       9.0  T
   9    -18.0746928 -0.585521E-07  0.113E-03    3.46      22.1  T
  10    -18.0746928 -0.102027E-07  0.391E-04    3.46      63.9  T
  11    -18.0746928 -0.985793E-09  0.943E-05    3.46     265.1  T

   *** convergence criteria satisfied after 11 iterations ***

         #    Occupation            Energy/Eh            Energy/eV
      -------------------------------------------------------------
         1        2.0000           -0.6136356             -16.6979
       ...           ...                  ...                  ...
        11        2.0000           -0.4674040             -12.7187
        12        2.0000           -0.4593099             -12.4985
        13        2.0000           -0.4423722             -12.0376
        14        2.0000           -0.4373384             -11.9006
        15        2.0000           -0.3926002             -10.6832
        16        2.0000           -0.3837152             -10.4414
        17        2.0000           -0.3577984              -9.7362 (HOMO)
        18                         -0.2308103              -6.2807 (LUMO)
        19                         -0.1856848              -5.0527
        20                         -0.1830645              -4.9814
        21                          0.1152303               3.1356
        22                          0.1324855               3.6051
       ...                                ...                  ...
        34                          0.6494866              17.6734
      -------------------------------------------------------------
                  HL-Gap            0.1269881 Eh            3.4555 eV
             Fermi-level           -0.2943044 Eh           -8.0084 eV

 SCC (total)                   0 d,  0 h,  0 min,  0.010 sec
 SCC setup                      ...        0 min,  0.000 sec (  2.448%)
 Dispersion                     ...        0 min,  0.000 sec (  1.162%)
 classical contributions        ...        0 min,  0.000 sec (  1.599%)
 integral evaluation            ...        0 min,  0.000 sec (  4.533%)
 iterations                     ...        0 min,  0.008 sec ( 76.831%)
 molecular gradient             ...        0 min,  0.001 sec ( 10.097%)
 printout                       ...        0 min,  0.000 sec (  3.113%)

         :::::::::::::::::::::::::::::::::::::::::::::::::::::
         ::                     SUMMARY                     ::
         :::::::::::::::::::::::::::::::::::::::::::::::::::::
         :: total energy             -17.748253108915 Eh    ::
         :: gradient norm              0.594087447315 Eh/a0 ::
         :: HOMO-LUMO gap              3.455521813417 eV    ::
         ::.................................................::
         :: SCC energy               -18.074692794568 Eh    ::
         :: -> isotropic ES            0.002709259488 Eh    ::
         :: -> anisotropic ES          0.007706906778 Eh    ::
         :: -> anisotropic XC          0.013697005334 Eh    ::
         :: -> dispersion             -0.010724406852 Eh    ::
         :: repulsion energy           0.290653201019 Eh    ::
         :: add. restraining           0.035753406807 Eh    ::
         :: total charge              -0.000000000000 e     ::
         :::::::::::::::::::::::::::::::::::::::::::::::::::::

      ----------------------------------------------------------- 
     |                   =====================                   |
     |                        A N C O P T                        |
     |                   =====================                   |
     |               Approximate Normal Coordinate               |
     |                Rational Function Optimizer                |
      ----------------------------------------------------------- 

          ...................................................
          :                      SETUP                      :
          :.................................................:
          :   optimization level            normal          :
          :   max. optcycles                   200          :
          :   ANC micro-cycles                  20          :
          :   degrees of freedom                42          :
          :.................................................:
          :   RF solver                   davidson          :
          :   write xtbopt.log                true          :
          :   linear?                        false          :
          :   energy convergence         0.5000000E-05 Eh   :
          :   grad. convergence          0.1000000E-02 Eh/α :
          :   maxmium RF displ.          1.0000000          :
          :   Hlow (freq-cutoff)         0.1000000E-01      :
          :   Hmax (freq-cutoff)         5.0000000          :
          :   S6 in model hess.         20.0000000          :
          ...................................................

generating ANC from model Hessian ...
Using Lindh-Hessian (1995)
 Shifting diagonal of input Hessian by    6.1785382150304366E-002
 Lowest  eigenvalues of input Hessian
    0.010000    0.022778    0.029480    0.057692    0.000000    0.000000
    0.000000    0.000000    0.000000    0.000000    0.066615    0.071217
    0.073504    0.081818    0.082456    0.086725    0.087190    0.088975
 Highest eigenvalues
    1.249608    1.391336    1.558060    2.005407    8.359007    8.375567


........................................................................
.............................. CYCLE    1 ..............................
........................................................................

 iter      E             dE          RMSdq      gap      omega  full diag
   1    -18.0746928 -0.180747E+02  0.932E-06    3.46       0.0  T
   2    -18.0746928 -0.675016E-13  0.507E-06    3.46    4931.2  T
   3    -18.0746928  0.163425E-12  0.400E-06    3.46    6246.2  T
     SCC iter.                  ...        0 min,  0.002 sec
     gradient                   ...        0 min,  0.001 sec
 * total energy  :   -17.7482531 Eh     change       -0.1342215E-10 Eh
   gradient norm :     0.5940874 Eh/α   predicted     0.0000000E+00 (-100.00%)
   displ. norm   :     0.1244352 α      lambda       -0.7013152E-01
   maximum displ.:     0.1170828 α      in ANC's #41, #27, #10, ...

........................................................................
.............................. CYCLE    2 ..............................
........................................................................

 iter      E             dE          RMSdq      gap      omega  full diag
   1    -18.0625356 -0.180625E+02  0.178E-01    2.93       0.0  T
   2    -18.0625573 -0.216399E-04  0.102E-01    2.93       1.0  T
   3    -18.0625385  0.187622E-04  0.371E-02    2.93       1.0  T
   4    -18.0625474 -0.887815E-05  0.271E-02    2.93       1.0  T
   5    -18.0625590 -0.116616E-04  0.138E-03    2.93      18.1  T
   6    -18.0625590 -0.254427E-08  0.682E-04    2.93      36.6  T
   7    -18.0625590  0.206200E-09  0.291E-04    2.93      85.9  T
     SCC iter.                  ...        0 min,  0.004 sec
     gradient                   ...        0 min,  0.001 sec
 * total energy  :   -17.7628610 Eh     change       -0.1460792E-01 Eh
   gradient norm :     0.3478616 Eh/α   predicted    -0.3560872E-01 ( 143.76%)
   displ. norm   :     0.0468498 α      lambda       -0.1510724E-01
   maximum displ.:     0.0431740 α      in ANC's #41, #8, #18, ...

........................................................................
.............................. CYCLE    3 ..............................
........................................................................

 iter      E             dE          RMSdq      gap      omega  full diag
   1    -18.0652951 -0.180653E+02  0.795E-02    3.12       0.0  T
   2    -18.0652987 -0.366168E-05  0.466E-02    3.12       1.0  T
   3    -18.0652812  0.175386E-04  0.341E-02    3.12       1.0  T
   4    -18.0652998 -0.186043E-04  0.833E-03    3.12       3.0  T
   5    -18.0653006 -0.832633E-06  0.573E-04    3.11      43.6  T
   6    -18.0653006 -0.746798E-09  0.285E-04    3.11      87.6  T
     SCC iter.                  ...        0 min,  0.003 sec
     gradient                   ...        0 min,  0.001 sec
 * total energy  :   -17.7704629 Eh     change       -0.7601870E-02 Eh
   gradient norm :     0.0027764 Eh/α   predicted    -0.7570201E-02 (  -0.42%)
   displ. norm   :     0.0257866 α      lambda       -0.4335738E-04
   maximum displ.:     0.0165481 α      in ANC's #2, #8, #4, ...

........................................................................
.............................. CYCLE    4 ..............................
........................................................................

 iter      E             dE          RMSdq      gap      omega  full diag
   1    -18.0648347 -0.180648E+02  0.220E-02    3.11       0.0  T
   2    -18.0648347 -0.341038E-07  0.128E-02    3.11       1.9  T
   3    -18.0648346  0.121622E-06  0.289E-03    3.11       8.7  T
   4    -18.0648347 -0.123028E-06  0.812E-04    3.11      30.8  T
   5    -18.0648347 -0.949858E-08  0.204E-04    3.11     122.7  T
     SCC iter.                  ...        0 min,  0.003 sec
     gradient                   ...        0 min,  0.001 sec
 * total energy  :   -17.7704964 Eh     change       -0.3347542E-04 Eh
   gradient norm :     0.0018672 Eh/α   predicted    -0.2169225E-04 ( -35.20%)
   displ. norm   :     0.0820290 α      lambda       -0.7316977E-04
   maximum displ.:     0.0685282 α      in ANC's #8, #10, #2, ...

........................................................................
.............................. CYCLE    5 ..............................
........................................................................

 iter      E             dE          RMSdq      gap      omega  full diag
   1    -18.0627495 -0.180627E+02  0.775E-02    3.09       0.0  T
   2    -18.0627491  0.369134E-06  0.456E-02    3.09       1.0  T
   3    -18.0627260  0.231126E-04  0.381E-02    3.09       1.0  T
   4    -18.0627510 -0.250012E-04  0.137E-03    3.09      18.3  T
   5    -18.0627510 -0.732188E-08  0.641E-04    3.09      39.0  T
   6    -18.0627510  0.330076E-08  0.559E-04    3.09      44.7  T
     SCC iter.                  ...        0 min,  0.003 sec
     gradient                   ...        0 min,  0.001 sec
 * total energy  :   -17.7705105 Eh     change       -0.1414199E-04 Eh
   gradient norm :     0.0045069 Eh/α   predicted    -0.3669465E-04 ( 159.47%)
   displ. norm   :     0.0370451 α      lambda       -0.4997514E-04
   maximum displ.:     0.0321514 α      in ANC's #1, #2, #4, ...

........................................................................
.............................. CYCLE    6 ..............................
........................................................................

 iter      E             dE          RMSdq      gap      omega  full diag
   1    -18.0634483 -0.180634E+02  0.381E-02    3.09       0.0  T
   2    -18.0634479  0.386940E-06  0.232E-02    3.09       1.1  T
   3    -18.0634404  0.750245E-05  0.237E-02    3.09       1.1  T
   4    -18.0634490 -0.860161E-05  0.976E-04    3.09      25.6  T
   5    -18.0634490 -0.774350E-08  0.440E-04    3.09      56.8  T
   6    -18.0634490 -0.892548E-09  0.262E-04    3.09      95.6  T
     SCC iter.                  ...        0 min,  0.003 sec
     gradient                   ...        0 min,  0.001 sec
 * total energy  :   -17.7705303 Eh     change       -0.1977135E-04 Eh
   gradient norm :     0.0027028 Eh/α   predicted    -0.2502259E-04 (  26.56%)
   displ. norm   :     0.0458943 α      lambda       -0.6389948E-04
   maximum displ.:     0.0259196 α      in ANC's #1, #2, #8, ...

........................................................................
.............................. CYCLE    7 ..............................
........................................................................

 iter      E             dE          RMSdq      gap      omega  full diag
   1    -18.0651965 -0.180652E+02  0.506E-02    3.09       0.0  T
   2    -18.0651959  0.593913E-06  0.306E-02    3.09       1.0  T
   3    -18.0651837  0.122533E-04  0.310E-02    3.09       1.0  T
   4    -18.0651977 -0.140064E-04  0.109E-03    3.09      23.0  T
   5    -18.0651977 -0.730920E-08  0.538E-04    3.09      46.5  T
   6    -18.0651977 -0.756767E-09  0.376E-04    3.09      66.5  T
     SCC iter.                  ...        0 min,  0.003 sec
     gradient                   ...        0 min,  0.001 sec
 * total energy  :   -17.7705366 Eh     change       -0.6317682E-05 Eh
   gradient norm :     0.0048447 Eh/α   predicted    -0.3201553E-04 ( 406.76%)
   displ. norm   :     0.0206582 α      lambda       -0.3876774E-04
   maximum displ.:     0.0116664 α      in ANC's #1, #2, #8, ...

........................................................................
.............................. CYCLE    8 ..............................
........................................................................

 iter      E             dE          RMSdq      gap      omega  full diag
   1    -18.0647304 -0.180647E+02  0.269E-02    3.09       0.0  T
   2    -18.0647303  0.710013E-07  0.160E-02    3.09       1.6  T
   3    -18.0647277  0.264773E-05  0.135E-02    3.09       1.9  T
   4    -18.0647305 -0.284552E-05  0.380E-04    3.09      65.8  T
   5    -18.0647305 -0.620329E-09  0.213E-04    3.09     117.4  T
   6    -18.0647305  0.108287E-09  0.177E-04    3.09     141.5  T
     SCC iter.                  ...        0 min,  0.003 sec
     gradient                   ...        0 min,  0.001 sec
 * total energy  :   -17.7705602 Eh     change       -0.2360325E-04 Eh
   gradient norm :     0.0010238 Eh/α   predicted    -0.1939353E-04 ( -17.84%)
   displ. norm   :     0.0406774 α      lambda       -0.1467720E-04
   maximum displ.:     0.0230858 α      in ANC's #8, #2, #6, ...

........................................................................
.............................. CYCLE    9 ..............................
........................................................................

 iter      E             dE          RMSdq      gap      omega  full diag
   1    -18.0644925 -0.180645E+02  0.212E-02    3.08       0.0  T
   2    -18.0644925 -0.441940E-08  0.125E-02    3.08       2.0  T
   3    -18.0644919  0.619394E-06  0.627E-03    3.08       4.0  T
   4    -18.0644925 -0.655378E-06  0.474E-04    3.08      52.8  T
   5    -18.0644925 -0.783484E-09  0.276E-04    3.08      90.7  T
     SCC iter.                  ...        0 min,  0.003 sec
     gradient                   ...        0 min,  0.001 sec
 * total energy  :   -17.7705781 Eh     change       -0.1788743E-04 Eh
   gradient norm :     0.0010700 Eh/α   predicted    -0.7345013E-05 ( -58.94%)
   displ. norm   :     0.1653129 α      lambda       -0.4993819E-04
   maximum displ.:     0.0963645 α      in ANC's #2, #8, #6, ...

........................................................................
.............................. CYCLE   10 ..............................
........................................................................

 iter      E             dE          RMSdq      gap      omega  full diag
   1    -18.0644037 -0.180644E+02  0.628E-02    3.06       0.0  T
   2    -18.0644037 -0.231683E-07  0.378E-02    3.06       1.0  T
   3    -18.0643970  0.670332E-05  0.196E-02    3.06       1.3  T
   4    -18.0644041 -0.710300E-05  0.172E-03    3.06      14.5  T
   5    -18.0644042 -0.932787E-08  0.907E-04    3.06      27.6  T
   6    -18.0644042 -0.316966E-08  0.336E-04    3.06      74.4  T
     SCC iter.                  ...        0 min,  0.003 sec
     gradient                   ...        0 min,  0.001 sec
 * total energy  :   -17.7706340 Eh     change       -0.5592716E-04 Eh
   gradient norm :     0.0026764 Eh/α   predicted    -0.2527159E-04 ( -54.81%)
   displ. norm   :     0.1708344 α      lambda       -0.6084653E-04
   maximum displ.:     0.1020941 α      in ANC's #2, #6, #8, ...

........................................................................
.............................. CYCLE   11 ..............................
........................................................................

 iter      E             dE          RMSdq      gap      omega  full diag
   1    -18.0642790 -0.180643E+02  0.581E-02    3.04       0.0  T
   2    -18.0642789  0.120207E-06  0.353E-02    3.04       1.0  T
   3    -18.0642691  0.981729E-05  0.241E-02    3.04       1.0  T
   4    -18.0642796 -0.104691E-04  0.156E-03    3.04      16.0  T
   5    -18.0642796 -0.348508E-08  0.812E-04    3.04      30.8  T
   6    -18.0642796 -0.317894E-08  0.287E-04    3.04      87.2  T
     SCC iter.                  ...        0 min,  0.003 sec
     gradient                   ...        0 min,  0.001 sec
 * total energy  :   -17.7706856 Eh     change       -0.5153207E-04 Eh
   gradient norm :     0.0041548 Eh/α   predicted    -0.3131339E-04 ( -39.24%)
   displ. norm   :     0.4199204 α      lambda       -0.1462211E-03
   maximum displ.:     0.2426090 α      in ANC's #2, #6, #8, ...

........................................................................
.............................. CYCLE   12 ..............................
........................................................................

 iter      E             dE          RMSdq      gap      omega  full diag
   1    -18.0623523 -0.180624E+02  0.146E-01    3.01       0.0  T
   2    -18.0623511  0.116573E-05  0.894E-02    3.01       1.0  T
   3    -18.0622813  0.698125E-04  0.647E-02    3.01       1.0  T
   4    -18.0623561 -0.747765E-04  0.366E-03    3.01       6.8  T
   5    -18.0623561 -0.463240E-08  0.185E-03    3.01      13.5  T
   6    -18.0623561 -0.171618E-07  0.985E-04    3.01      25.4  T
   7    -18.0623561 -0.108009E-07  0.400E-04    3.01      62.6  T
     SCC iter.                  ...        0 min,  0.004 sec
     gradient                   ...        0 min,  0.001 sec
 * total energy  :   -17.7707746 Eh     change       -0.8905945E-04 Eh
   gradient norm :     0.0197257 Eh/α   predicted    -0.8599755E-04 (  -3.44%)
   displ. norm   :     0.1814139 α      lambda       -0.1516193E-03
   maximum displ.:     0.0947477 α      in ANC's #2, #6, #7, ...

........................................................................
.............................. CYCLE   13 ..............................
........................................................................

 iter      E             dE          RMSdq      gap      omega  full diag
   1    -18.0625839 -0.180626E+02  0.682E-02    3.01       0.0  T
   2    -18.0625836  0.241697E-06  0.411E-02    3.01       1.0  T
   3    -18.0625698  0.137817E-04  0.292E-02    3.01       1.0  T
   4    -18.0625846 -0.147573E-04  0.146E-03    3.01      17.1  T
   5    -18.0625846  0.490027E-08  0.101E-03    3.01      24.7  T
   6    -18.0625846 -0.461153E-08  0.615E-04    3.01      40.6  T
   7    -18.0625846 -0.587628E-08  0.932E-05    3.01     268.4  T
     SCC iter.                  ...        0 min,  0.004 sec
     gradient                   ...        0 min,  0.001 sec
 * total energy  :   -17.7709102 Eh     change       -0.1355738E-03 Eh
   gradient norm :     0.0140766 Eh/α   predicted    -0.7830322E-04 ( -42.24%)
   displ. norm   :     0.5088844 α      lambda       -0.8114797E-03
   maximum displ.:     0.2285504 α      in ANC's #7, #2, #6, ...

........................................................................
.............................. CYCLE   14 ..............................
........................................................................

 iter      E             dE          RMSdq      gap      omega  full diag
   1    -18.0667903 -0.180668E+02  0.211E-01    3.05       0.0  T
   2    -18.0667899  0.397073E-06  0.125E-01    3.05       1.0  T
   3    -18.0667128  0.771440E-04  0.698E-02    3.05       1.0  T
   4    -18.0667949 -0.821209E-04  0.479E-03    3.05       5.2  T
   5    -18.0667948  0.670679E-07  0.378E-03    3.05       6.6  T
   6    -18.0667950 -0.131657E-06  0.139E-03    3.05      17.9  T
   7    -18.0667950 -0.234407E-07  0.505E-04    3.05      49.5  T
   8    -18.0667950 -0.271803E-08  0.132E-04    3.05     189.9  T
     SCC iter.                  ...        0 min,  0.004 sec
     gradient                   ...        0 min,  0.001 sec
 * total energy  :   -17.7715952 Eh     change       -0.6850497E-03 Eh
   gradient norm :     0.0096798 Eh/α   predicted    -0.5108094E-03 ( -25.43%)
   displ. norm   :     0.8808336 α      lambda       -0.1381055E-02
   maximum displ.:     0.4056329 α      in ANC's #7, #2, #5, ...

........................................................................
.............................. CYCLE   15 ..............................
........................................................................

 iter      E             dE          RMSdq      gap      omega  full diag
   1    -18.0596607 -0.180597E+02  0.376E-01    3.09       0.0  T
   2    -18.0596652 -0.442314E-05  0.225E-01    3.09       1.0  T
   3    -18.0594553  0.209861E-03  0.112E-01    3.10       1.0  T
   4    -18.0596794 -0.224090E-03  0.940E-03    3.10       2.7  T
   5    -18.0596797 -0.269724E-06  0.590E-03    3.10       4.2  T
   6    -18.0596799 -0.214931E-06  0.310E-03    3.10       8.1  T
   7    -18.0596799 -0.145601E-07  0.179E-03    3.10      13.9  T
   8    -18.0596799 -0.500838E-07  0.371E-04    3.10      67.4  T
   9    -18.0596799 -0.999730E-09  0.134E-04    3.10     186.0  T
     SCC iter.                  ...        0 min,  0.004 sec
     gradient                   ...        0 min,  0.001 sec
 * total energy  :   -17.7725352 Eh     change       -0.9399547E-03 Eh
   gradient norm :     0.0723504 Eh/α   predicted    -0.1226295E-02 (  30.46%)
   displ. norm   :     0.5762633 α      lambda       -0.4401401E-02
   maximum displ.:     0.3187570 α      in ANC's #7, #5, #1, ...

........................................................................
.............................. CYCLE   16 ..............................
........................................................................

 iter      E             dE          RMSdq      gap      omega  full diag
   1    -18.0728607 -0.180729E+02  0.420E-01    3.19       0.0  T
   2    -18.0728631 -0.243080E-05  0.249E-01    3.19       1.0  T
   3    -18.0725708  0.292350E-03  0.136E-01    3.19       1.0  T
   4    -18.0728841 -0.313339E-03  0.106E-02    3.19       2.4  T
   5    -18.0728844 -0.251739E-06  0.668E-03    3.19       3.7  T
   6    -18.0728843  0.201457E-07  0.398E-03    3.19       6.3  T
   7    -18.0728846 -0.272413E-06  0.996E-04    3.19      25.1  T
   8    -18.0728846 -0.622972E-08  0.419E-04    3.19      59.7  T
     SCC iter.                  ...        0 min,  0.004 sec
     gradient                   ...        0 min,  0.001 sec
 * total energy  :   -17.7740452 Eh     change       -0.1510028E-02 Eh
   gradient norm :     0.0594103 Eh/α   predicted    -0.2931520E-02 (  94.14%)
   displ. norm   :     0.3060313 α      lambda       -0.4673165E-02
   maximum displ.:     0.1604838 α      in ANC's #7, #3, #5, ...

........................................................................
.............................. CYCLE   17 ..............................
........................................................................

 iter      E             dE          RMSdq      gap      omega  full diag
   1    -18.0755881 -0.180756E+02  0.218E-01    3.27       0.0  T
   2    -18.0755818  0.637334E-05  0.130E-01    3.27       1.0  T
   3    -18.0753933  0.188483E-03  0.117E-01    3.27       1.0  T
   4    -18.0756090 -0.215682E-03  0.510E-03    3.27       4.9  T
   5    -18.0756092 -0.240641E-06  0.290E-03    3.27       8.6  T
   6    -18.0756093 -0.643158E-07  0.166E-03    3.27      15.0  T
   7    -18.0756093 -0.199319E-07  0.363E-04    3.27      68.8  T
   8    -18.0756093 -0.290925E-09  0.818E-05    3.27     305.6  T
     SCC iter.                  ...        0 min,  0.004 sec
     gradient                   ...        0 min,  0.001 sec
 * total energy  :   -17.7775951 Eh     change       -0.3549889E-02 Eh
   gradient norm :     0.0577801 Eh/α   predicted    -0.2555415E-02 ( -28.01%)
   displ. norm   :     0.7219095 α      lambda       -0.7514806E-02
   maximum displ.:     0.3218588 α      in ANC's #7, #1, #3, ...

........................................................................
.............................. CYCLE   18 ..............................
........................................................................

 iter      E             dE          RMSdq      gap      omega  full diag
   1    -18.0720022 -0.180720E+02  0.471E-01    3.34       0.0  T
   2    -18.0720141 -0.118326E-04  0.277E-01    3.34       1.0  T
   3    -18.0719480  0.660906E-04  0.706E-02    3.34       1.0  T
   4    -18.0720194 -0.714639E-04  0.113E-02    3.34       2.2  T
   5    -18.0720211 -0.161165E-05  0.587E-03    3.34       4.3  T
   6    -18.0720213 -0.215982E-06  0.306E-03    3.34       8.2  T
   7    -18.0720213 -0.525823E-07  0.108E-03    3.34      23.2  T
   8    -18.0720213 -0.389817E-08  0.606E-04    3.34      41.3  T
   9    -18.0720213 -0.579926E-08  0.131E-04    3.34     191.1  T
     SCC iter.                  ...        0 min,  0.004 sec
     gradient                   ...        0 min,  0.001 sec
 * total energy  :   -17.7829742 Eh     change       -0.5379059E-02 Eh
   gradient norm :     0.0765627 Eh/α   predicted    -0.5715634E-02 (   6.26%)
   displ. norm   :     0.5815808 α      lambda       -0.8593373E-02
   maximum displ.:     0.2429454 α      in ANC's #10, #27, #1, ...

........................................................................
.............................. CYCLE   19 ..............................
........................................................................

 iter      E             dE          RMSdq      gap      omega  full diag
   1    -18.0962660 -0.180963E+02  0.439E-01    3.44       0.0  T
   2    -18.0962891 -0.230783E-04  0.256E-01    3.45       1.0  T
   3    -18.0962574  0.317267E-04  0.531E-02    3.45       1.0  T
   4    -18.0962955 -0.381434E-04  0.128E-02    3.45       2.0  T
   5    -18.0962968 -0.130371E-05  0.885E-03    3.45       2.8  T
   6    -18.0962973 -0.492260E-06  0.304E-03    3.45       8.2  T
   7    -18.0962974 -0.252889E-07  0.134E-03    3.45      18.7  T
   8    -18.0962974 -0.170182E-07  0.418E-04    3.45      59.8  T
   9    -18.0962974 -0.127557E-09  0.276E-04    3.45      90.4  T
     SCC iter.                  ...        0 min,  0.004 sec
     gradient                   ...        0 min,  0.001 sec
 * total energy  :   -17.7860410 Eh     change       -0.3066862E-02 Eh
   gradient norm :     0.0787461 Eh/α   predicted    -0.5749939E-02 (  87.49%)
   displ. norm   :     0.7252257 α      lambda       -0.1294542E-01
   maximum displ.:     0.4606914 α      in ANC's #7, #5, #1, ...

........................................................................
.............................. CYCLE   20 ..............................
........................................................................

 iter      E             dE          RMSdq      gap      omega  full diag
   1    -18.0799424 -0.180799E+02  0.541E-01    3.68       0.0  T
   2    -18.0800263 -0.838131E-04  0.314E-01    3.67       1.0  T
   3    -18.0799527  0.735910E-04  0.839E-02    3.68       1.0  T
   4    -18.0800364 -0.837007E-04  0.253E-02    3.67       1.0  T
   5    -18.0800442 -0.783321E-05  0.102E-02    3.67       2.5  T
   6    -18.0800452 -0.100751E-05  0.440E-03    3.67       5.7  T
   7    -18.0800452 -0.113224E-07  0.164E-03    3.67      15.3  T
   8    -18.0800453 -0.333022E-07  0.439E-04    3.67      57.0  T
   9    -18.0800453  0.474500E-10  0.150E-04    3.67     166.8  T
     SCC iter.                  ...        0 min,  0.004 sec
     gradient                   ...        0 min,  0.001 sec
 * total energy  :   -17.7941682 Eh     change       -0.8127205E-02 Eh
   gradient norm :     0.0727720 Eh/α   predicted    -0.9877051E-02 (  21.53%)
   displ. norm   :     0.5263738 α      lambda       -0.9506768E-02
   maximum displ.:     0.2678137 α      in ANC's #7, #1, #5, ...
 * RMSD in coord.:     1.2323734 α      energy gain  -0.4591512E-01 Eh

generating ANC from model Hessian ...
Using Lindh-Hessian (1995)
 Shifting diagonal of input Hessian by    9.0351689956921898E-003
 Lowest  eigenvalues of input Hessian
    0.000000    0.000000    0.000000    0.000000    0.000000    0.000000
    0.010000    0.012107    0.013936    0.015401    0.018393    0.019473
    0.024782    0.028545    0.029658    0.030469    0.031307    0.043043
 Highest eigenvalues
    1.309210    1.560836    1.632001    1.890008    8.250578    8.294457


........................................................................
.............................. CYCLE   21 ..............................
........................................................................

 iter      E             dE          RMSdq      gap      omega  full diag
   1    -18.0873222 -0.180873E+02  0.391E-01    3.74       0.0  T
   2    -18.0873499 -0.276651E-04  0.228E-01    3.74       1.0  T
   3    -18.0871780  0.171873E-03  0.104E-01    3.74       1.0  T
   4    -18.0873759 -0.197872E-03  0.171E-02    3.74       1.5  T
   5    -18.0873783 -0.238621E-05  0.760E-03    3.74       3.3  T
   6    -18.0873784 -0.103729E-06  0.275E-03    3.74       9.1  T
   7    -18.0873785 -0.753484E-07  0.919E-04    3.74      27.2  T
   8    -18.0873785 -0.236221E-08  0.292E-04    3.74      85.5  T
     SCC iter.                  ...        0 min,  0.004 sec
     gradient                   ...        0 min,  0.001 sec
 * total energy  :   -17.7985566 Eh     change       -0.4388372E-02 Eh
   gradient norm :     0.1056951 Eh/α   predicted     0.0000000E+00 (-100.00%)
   displ. norm   :     0.4015085 α      lambda       -0.9903807E-02
   maximum displ.:     0.2551811 α      in ANC's #2, #6, #1, ...

........................................................................
.............................. CYCLE   22 ..............................
........................................................................

 iter      E             dE          RMSdq      gap      omega  full diag
   1    -18.1103726 -0.181104E+02  0.252E-01    3.85       0.0  T
   2    -18.1103852 -0.125599E-04  0.146E-01    3.85       1.0  T
   3    -18.1103544  0.308155E-04  0.511E-02    3.86       1.0  T
   4    -18.1103902 -0.358467E-04  0.811E-03    3.86       3.1  T
   5    -18.1103907 -0.426281E-06  0.443E-03    3.86       5.6  T
   6    -18.1103908 -0.124774E-06  0.178E-03    3.86      14.1  T
   7    -18.1103908 -0.150461E-08  0.578E-04    3.86      43.3  T
   8    -18.1103908 -0.493584E-08  0.194E-04    3.86     128.9  T
     SCC iter.                  ...        0 min,  0.004 sec
     gradient                   ...        0 min,  0.001 sec
 * total energy  :   -17.8050475 Eh     change       -0.6490881E-02 Eh
   gradient norm :     0.0667805 Eh/α   predicted    -0.5750185E-02 ( -11.41%)
   displ. norm   :     0.5707239 α      lambda       -0.6507684E-02
   maximum displ.:     0.3979298 α      in ANC's #2, #6, #1, ...

........................................................................
.............................. CYCLE   23 ..............................
........................................................................

 iter      E             dE          RMSdq      gap      omega  full diag
   1    -18.1265504 -0.181266E+02  0.309E-01    3.94       0.0  T
   2    -18.1265564 -0.600706E-05  0.183E-01    3.94       1.0  T
   3    -18.1265421  0.143332E-04  0.363E-02    3.94       1.0  T
   4    -18.1265591 -0.170806E-04  0.574E-03    3.94       4.4  T
   5    -18.1265593 -0.114163E-06  0.341E-03    3.94       7.3  T
   6    -18.1265593 -0.824367E-07  0.966E-04    3.94      25.9  T
   7    -18.1265593 -0.416048E-09  0.436E-04    3.94      57.3  T
     SCC iter.                  ...        0 min,  0.004 sec
     gradient                   ...        0 min,  0.001 sec
 * total energy  :   -17.8100764 Eh     change       -0.5028900E-02 Eh
   gradient norm :     0.0268121 Eh/α   predicted    -0.4313703E-02 ( -14.22%)
   displ. norm   :     0.6875028 α      lambda       -0.5117686E-02
   maximum displ.:     0.4645770 α      in ANC's #2, #6, #1, ...

........................................................................
.............................. CYCLE   24 ..............................
........................................................................

 iter      E             dE          RMSdq      gap      omega  full diag
   1    -18.1269570 -0.181270E+02  0.359E-01    4.03       0.0  T
   2    -18.1269667 -0.966636E-05  0.211E-01    4.02       1.0  T
   3    -18.1269540  0.127127E-04  0.345E-02    4.04       1.0  T
   4    -18.1269706 -0.166514E-04  0.541E-03    4.03       4.6  T
   5    -18.1269706  0.702890E-08  0.309E-03    4.03       8.1  T
   6    -18.1269707 -0.618908E-07  0.123E-03    4.03      20.3  T
   7    -18.1269707 -0.791514E-08  0.254E-04    4.03      98.2  T
   8    -18.1269707 -0.516565E-11  0.113E-04    4.03     221.4  T
     SCC iter.                  ...        0 min,  0.004 sec
     gradient                   ...        0 min,  0.001 sec
 * total energy  :   -17.8136499 Eh     change       -0.3573558E-02 Eh
   gradient norm :     0.0591927 Eh/α   predicted    -0.3768297E-02 (   5.45%)
   displ. norm   :     0.3995221 α      lambda       -0.2457307E-02
   maximum displ.:     0.2889317 α      in ANC's #2, #6, #1, ...

........................................................................
.............................. CYCLE   25 ..............................
........................................................................

 iter      E             dE          RMSdq      gap      omega  full diag
   1    -18.1331904 -0.181332E+02  0.191E-01    4.06       0.0  T
   2    -18.1331940 -0.355128E-05  0.112E-01    4.05       1.0  T
   3    -18.1331857  0.821548E-05  0.234E-02    4.06       1.1  T
   4    -18.1331957 -0.999401E-05  0.381E-03    4.05       6.6  T
   5    -18.1331958 -0.223381E-07  0.249E-03    4.05      10.1  T
   6    -18.1331958 -0.458436E-07  0.607E-04    4.05      41.2  T
   7    -18.1331958 -0.385906E-09  0.272E-04    4.05      91.8  T
     SCC iter.                  ...        0 min,  0.004 sec
     gradient                   ...        0 min,  0.001 sec
 * total energy  :   -17.8152540 Eh     change       -0.1604060E-02 Eh
   gradient norm :     0.0586233 Eh/α   predicted    -0.1424766E-02 ( -11.18%)
   displ. norm   :     0.2533696 α      lambda       -0.1554131E-02
   maximum displ.:     0.1768944 α      in ANC's #2, #6, #27, ...

........................................................................
.............................. CYCLE   26 ..............................
........................................................................

 iter      E             dE          RMSdq      gap      omega  full diag
   1    -18.1401986 -0.181402E+02  0.147E-01    4.10       0.0  T
   2    -18.1402026 -0.398043E-05  0.860E-02    4.09       1.0  T
   3    -18.1401921  0.104372E-04  0.273E-02    4.10       1.0  T
   4    -18.1402050 -0.128627E-04  0.330E-03    4.09       7.6  T
   5    -18.1402050 -0.179107E-09  0.186E-03    4.09      13.5  T
   6    -18.1402050 -0.298547E-07  0.423E-04    4.09      59.1  T
   7    -18.1402050 -0.221384E-09  0.236E-04    4.09     106.1  T
     SCC iter.                  ...        0 min,  0.004 sec
     gradient                   ...        0 min,  0.001 sec
 * total energy  :   -17.8157696 Eh     change       -0.5155520E-03 Eh
   gradient norm :     0.0358301 Eh/α   predicted    -0.8269477E-03 (  60.40%)
   displ. norm   :     0.2470694 α      lambda       -0.1127249E-02
   maximum displ.:     0.1681714 α      in ANC's #2, #4, #1, ...

........................................................................
.............................. CYCLE   27 ..............................
........................................................................

 iter      E             dE          RMSdq      gap      omega  full diag
   1    -18.1419497 -0.181419E+02  0.152E-01    4.07       0.0  T
   2    -18.1419549 -0.516429E-05  0.927E-02    4.05       1.0  T
   3    -18.1419383  0.165300E-04  0.324E-02    4.07       1.0  T
   4    -18.1419584 -0.200684E-04  0.249E-03    4.06      10.0  T
   5    -18.1419584 -0.200178E-07  0.158E-03    4.06      15.9  T
   6    -18.1419585 -0.143541E-07  0.324E-04    4.06      77.1  T
   7    -18.1419585 -0.784084E-11  0.167E-04    4.06     149.5  T
     SCC iter.                  ...        0 min,  0.004 sec
     gradient                   ...        0 min,  0.001 sec
 * total energy  :   -17.8162486 Eh     change       -0.4789976E-03 Eh
   gradient norm :     0.0337402 Eh/α   predicted    -0.5980309E-03 (  24.85%)
   displ. norm   :     0.1082159 α      lambda       -0.4110271E-03
   maximum displ.:     0.0745469 α      in ANC's #1, #2, #10, ...

........................................................................
.............................. CYCLE   28 ..............................
........................................................................

 iter      E             dE          RMSdq      gap      omega  full diag
   1    -18.1390443 -0.181390E+02  0.562E-02    4.06       0.0  T
   2    -18.1390454 -0.101894E-05  0.326E-02    4.06       1.0  T
   3    -18.1390431  0.225198E-05  0.155E-02    4.06       1.6  T
   4    -18.1390460 -0.288406E-05  0.161E-03    4.06      15.6  T
   5    -18.1390460 -0.109982E-07  0.113E-03    4.06      22.1  T
   6    -18.1390460 -0.632879E-08  0.386E-04    4.06      64.8  T
   7    -18.1390460 -0.119602E-09  0.158E-04    4.06     157.9  T
     SCC iter.                  ...        0 min,  0.004 sec
     gradient                   ...        0 min,  0.001 sec
 * total energy  :   -17.8165282 Eh     change       -0.2796637E-03 Eh
   gradient norm :     0.0224162 Eh/α   predicted    -0.2079213E-03 ( -25.65%)
   displ. norm   :     0.2417436 α      lambda       -0.5419097E-03
   maximum displ.:     0.2065376 α      in ANC's #1, #2, #4, ...

........................................................................
.............................. CYCLE   29 ..............................
........................................................................

 iter      E             dE          RMSdq      gap      omega  full diag
   1    -18.1368382 -0.181368E+02  0.928E-02    4.06       0.0  T
   2    -18.1368399 -0.165973E-05  0.555E-02    4.06       1.0  T
   3    -18.1368339  0.599610E-05  0.190E-02    4.06       1.3  T
   4    -18.1368411 -0.717960E-05  0.184E-03    4.06      13.6  T
   5    -18.1368411 -0.311951E-08  0.959E-04    4.06      26.1  T
   6    -18.1368411 -0.424487E-08  0.348E-04    4.06      71.9  T
     SCC iter.                  ...        0 min,  0.003 sec
     gradient                   ...        0 min,  0.001 sec
 * total energy  :   -17.8168503 Eh     change       -0.3221317E-03 Eh
   gradient norm :     0.0089859 Eh/α   predicted    -0.2867877E-03 ( -10.97%)
   displ. norm   :     0.2873961 α      lambda       -0.4056671E-03
   maximum displ.:     0.2078988 α      in ANC's #1, #2, #4, ...

........................................................................
.............................. CYCLE   30 ..............................
........................................................................

 iter      E             dE          RMSdq      gap      omega  full diag
   1    -18.1356890 -0.181357E+02  0.111E-01    4.07       0.0  T
   2    -18.1356914 -0.236108E-05  0.646E-02    4.07       1.0  T
   3    -18.1356824  0.891336E-05  0.257E-02    4.07       1.0  T
   4    -18.1356933 -0.108332E-04  0.192E-03    4.07      13.0  T
   5    -18.1356933 -0.575333E-08  0.119E-03    4.07      21.0  T
   6    -18.1356933 -0.796991E-08  0.302E-04    4.07      82.9  T
   7    -18.1356933 -0.313232E-09  0.154E-04    4.07     162.8  T
     SCC iter.                  ...        0 min,  0.003 sec
     gradient                   ...        0 min,  0.001 sec
 * total energy  :   -17.8170683 Eh     change       -0.2179144E-03 Eh
   gradient norm :     0.0194560 Eh/α   predicted    -0.2195887E-03 (   0.77%)
   displ. norm   :     0.1379743 α      lambda       -0.2688094E-03
   maximum displ.:     0.0791206 α      in ANC's #1, #2, #4, ...

........................................................................
.............................. CYCLE   31 ..............................
........................................................................

 iter      E             dE          RMSdq      gap      omega  full diag
   1    -18.1377573 -0.181378E+02  0.593E-02    4.06       0.0  T
   2    -18.1377577 -0.443465E-06  0.349E-02    4.06       1.0  T
   3    -18.1377567  0.102947E-05  0.896E-03    4.06       2.8  T
   4    -18.1377579 -0.124131E-05  0.133E-03    4.06      18.7  T
   5    -18.1377579 -0.376654E-08  0.692E-04    4.06      36.1  T
   6    -18.1377579 -0.281053E-08  0.315E-04    4.06      79.3  T
     SCC iter.                  ...        0 min,  0.003 sec
     gradient                   ...        0 min,  0.001 sec
 * total energy  :   -17.8172351 Eh     change       -0.1668193E-03 Eh
   gradient norm :     0.0046832 Eh/α   predicted    -0.1369649E-03 ( -17.90%)
   displ. norm   :     0.1997989 α      lambda       -0.1685478E-03
   maximum displ.:     0.1437932 α      in ANC's #1, #2, #4, ...

........................................................................
.............................. CYCLE   32 ..............................
........................................................................

 iter      E             dE          RMSdq      gap      omega  full diag
   1    -18.1387587 -0.181388E+02  0.498E-02    4.07       0.0  T
   2    -18.1387595 -0.851676E-06  0.292E-02    4.07       1.0  T
   3    -18.1387571  0.239214E-05  0.139E-02    4.07       1.8  T
   4    -18.1387602 -0.309271E-05  0.119E-03    4.07      21.0  T
   5    -18.1387602  0.670031E-09  0.737E-04    4.07      33.9  T
   6    -18.1387602 -0.376033E-08  0.217E-04    4.07     115.2  T
     SCC iter.                  ...        0 min,  0.003 sec
     gradient                   ...        0 min,  0.001 sec
 * total energy  :   -17.8173057 Eh     change       -0.7057746E-04 Eh
   gradient norm :     0.0146074 Eh/α   predicted    -0.8763688E-04 (  24.17%)
   displ. norm   :     0.0809500 α      lambda       -0.1298191E-03
   maximum displ.:     0.0641668 α      in ANC's #1, #6, #28, ...

........................................................................
.............................. CYCLE   33 ..............................
........................................................................

 iter      E             dE          RMSdq      gap      omega  full diag
   1    -18.1432844 -0.181433E+02  0.480E-02    4.08       0.0  T
   2    -18.1432850 -0.616982E-06  0.286E-02    4.08       1.0  T
   3    -18.1432836  0.137858E-05  0.920E-03    4.08       2.7  T
   4    -18.1432853 -0.168753E-05  0.140E-03    4.08      17.9  T
   5    -18.1432853 -0.466281E-08  0.693E-04    4.08      36.1  T
   6    -18.1432853 -0.100168E-08  0.355E-04    4.08      70.3  T
     SCC iter.                  ...        0 min,  0.003 sec
     gradient                   ...        0 min,  0.001 sec
 * total energy  :   -17.8172918 Eh     change        0.1386256E-04 Eh
   gradient norm :     0.0157199 Eh/α   predicted    -0.6533454E-04 (-571.30%)
   displ. norm   :     0.0632573 α      lambda       -0.1265442E-03
   maximum displ.:     0.0524587 α      in ANC's #2, #4, #10, ...

........................................................................
.............................. CYCLE   34 ..............................
........................................................................

 iter      E             dE          RMSdq      gap      omega  full diag
   1    -18.1396384 -0.181396E+02  0.443E-02    4.07       0.0  T
   2    -18.1396388 -0.368421E-06  0.259E-02    4.07       1.0  T
   3    -18.1396384  0.390516E-06  0.622E-03    4.07       4.0  T
   4    -18.1396389 -0.507094E-06  0.107E-03    4.07      23.3  T
   5    -18.1396389 -0.243925E-08  0.616E-04    4.07      40.6  T
   6    -18.1396389 -0.163266E-08  0.329E-04    4.07      76.0  T
     SCC iter.                  ...        0 min,  0.003 sec
     gradient                   ...        0 min,  0.001 sec
 * total energy  :   -17.8173457 Eh     change       -0.5386795E-04 Eh
   gradient norm :     0.0043193 Eh/α   predicted    -0.6352416E-04 (  17.93%)
   displ. norm   :     0.0313454 α      lambda       -0.2863449E-04
   maximum displ.:     0.0143979 α      in ANC's #1, #5, #4, ...

........................................................................
.............................. CYCLE   35 ..............................
........................................................................

 iter      E             dE          RMSdq      gap      omega  full diag
   1    -18.1400485 -0.181400E+02  0.293E-02    4.07       0.0  T
   2    -18.1400486 -0.132951E-06  0.170E-02    4.07       1.5  T
   3    -18.1400481  0.532743E-06  0.611E-03    4.07       4.1  T
   4    -18.1400488 -0.640670E-06  0.620E-04    4.07      40.3  T
   5    -18.1400488  0.441968E-09  0.440E-04    4.07      56.8  T
     SCC iter.                  ...        0 min,  0.003 sec
     gradient                   ...        0 min,  0.001 sec
 * total energy  :   -17.8173465 Eh     change       -0.8465530E-06 Eh
   gradient norm :     0.0067738 Eh/α   predicted    -0.1433270E-04 (1593.07%)
   displ. norm   :     0.0158492 α      lambda       -0.1963062E-04
   maximum displ.:     0.0080688 α      in ANC's #3, #6, #1, ...

........................................................................
.............................. CYCLE   36 ..............................
........................................................................

 iter      E             dE          RMSdq      gap      omega  full diag
   1    -18.1402643 -0.181403E+02  0.146E-02    4.07       0.0  T
   2    -18.1402643 -0.524166E-07  0.842E-03    4.07       3.0  T
   3    -18.1402641  0.174830E-06  0.387E-03    4.07       6.5  T
   4    -18.1402644 -0.217918E-06  0.486E-04    4.07      51.4  T
   5    -18.1402644 -0.791829E-10  0.350E-04    4.07      71.5  T
     SCC iter.                  ...        0 min,  0.003 sec
     gradient                   ...        0 min,  0.001 sec
 * total energy  :   -17.8173561 Eh     change       -0.9588350E-05 Eh
   gradient norm :     0.0018693 Eh/α   predicted    -0.9818493E-05 (   2.40%)
   displ. norm   :     0.0247588 α      lambda       -0.3977878E-05
   maximum displ.:     0.0135798 α      in ANC's #1, #2, #10, ...

........................................................................
.............................. CYCLE   37 ..............................
........................................................................

 iter      E             dE          RMSdq      gap      omega  full diag
   1    -18.1402041 -0.181402E+02  0.152E-02    4.07       0.0  T
   2    -18.1402041 -0.299978E-07  0.889E-03    4.07       2.8  T
   3    -18.1402040  0.918908E-07  0.253E-03    4.07       9.9  T
   4    -18.1402041 -0.110589E-06  0.278E-04    4.07      89.9  T
   5    -18.1402041 -0.211283E-09  0.145E-04    4.07     172.3  T
     SCC iter.                  ...        0 min,  0.002 sec
     gradient                   ...        0 min,  0.001 sec
 * total energy  :   -17.8173566 Eh     change       -0.4808926E-06 Eh
   gradient norm :     0.0025413 Eh/α   predicted    -0.1989955E-05 ( 313.80%)
   displ. norm   :     0.0056412 α      lambda       -0.3152490E-05
   maximum displ.:     0.0033668 α      in ANC's #3, #4, #13, ...

........................................................................
.............................. CYCLE   38 ..............................
........................................................................

 iter      E             dE          RMSdq      gap      omega  full diag
   1    -18.1401766 -0.181402E+02  0.534E-03    4.07       0.0  T
   2    -18.1401766 -0.686146E-08  0.316E-03    4.07       7.9  T
   3    -18.1401766  0.180226E-07  0.115E-03    4.07      21.7  T
   4    -18.1401766 -0.223498E-07  0.114E-04    4.07     218.7  T
   5    -18.1401766 -0.273843E-10  0.565E-05    4.07     442.8  T
     SCC iter.                  ...        0 min,  0.002 sec
     gradient                   ...        0 min,  0.001 sec
 * total energy  :   -17.8173587 Eh     change       -0.2150144E-05 Eh
   gradient norm :     0.0008225 Eh/α   predicted    -0.1578047E-05 ( -26.61%)
   displ. norm   :     0.0164885 α      lambda       -0.1401031E-05
   maximum displ.:     0.0126332 α      in ANC's #1, #4, #2, ...

   *** GEOMETRY OPTIMIZATION CONVERGED AFTER 38 ITERATIONS ***

------------------------------------------------------------------------
 total energy gain   :        -0.0691056 Eh      -43.3644 kcal/mol
 total RMSD          :         1.8480637 a0        0.9780 Å
 total power (kW/mol):        -4.7746523 (step) -841.0300 (real)
------------------------------------------------------------------------

 ANCopt (total)                0 d,  0 h,  0 min,  0.216 sec
 optimizer setup                ...        0 min,  0.000 sec (  0.091%)
 model hessian                  ...        0 min,  0.014 sec (  6.421%)
 ANC generation                 ...        0 min,  0.001 sec (  0.400%)
 coordinate transformation      ...        0 min,  0.000 sec (  0.116%)
 single point calculation       ...        0 min,  0.182 sec ( 84.311%)
 optimization log               ...        0 min,  0.006 sec (  2.876%)
 hessian update                 ...        0 min,  0.000 sec (  0.230%)
 rational function              ...        0 min,  0.006 sec (  2.573%)

================
 final structure:
================
16
 xtb: 6.6.1 (8d0f1dd)
C            0.35626566398540        1.54410340948324       -0.13064037099680
C           -0.93793821272016        1.25432461745124        0.27178877204024
C           -1.56965632283391        0.09056807728700       -0.12934136647959
C           -0.22558181912823       -1.40301504439655        0.65509413617836
C            1.07116695499168       -1.11248627978970        0.25300965429945
C            1.06287244118401        0.67945305873205       -0.94711840525229
H            0.88594736872576        2.34217251639339        0.37175844084453
H           -1.37099917790728        1.83639788069286        1.07437338822401
H           -2.52099941615817       -0.16929174797234        0.30799905809492
H           -1.41140434852708       -0.29205668658590       -1.12265829608792
H           -0.51433469252015       -1.20834938701667        1.67394386043700
H           -0.76576491464217       -2.19356481569801        0.16174142830695
H            1.76096421442341       -0.69775592704823        0.96871794805366
H            1.51667878038413       -1.68329383582228       -0.54476982971421
H            2.10892184171651        0.86612526374606       -1.13230927238707
H            0.55399163902591        0.14696890054383       -1.73161914556095

 Bond Distances (Angstroems)
 ---------------------------
C1-C2=1.3860         C1-C6=1.3833         C1-H7=1.0816         C2-C1=1.3860         C2-C3=1.3836         C2-H8=1.0819         
C3-C2=1.3836         C3-H9=1.0788         C3-H10=1.0762        C4-C5=1.3884         C4-H11=1.0767        C4-H12=1.0771        
C5-C4=1.3884         C5-H13=1.0771        C5-H14=1.0774        C6-C1=1.3833         C6-H15=1.0786        C6-H16=1.0761        
H7-C1=1.0816         H8-C2=1.0819         H9-C3=1.0788         H10-C3=1.0762        H11-C4=1.0767        H12-C4=1.0771        
H13-C5=1.0771        H14-C5=1.0774        H15-C6=1.0786        H16-C6=1.0761        
 C  H  Rav=1.0781 sigma=0.0020  Rmin=1.0761  Rmax=1.0819    10
 C  C  Rav=1.3853 sigma=0.0021  Rmin=1.3833  Rmax=1.3884     4

 selected bond angles (degree)
 --------------------
C6-C1-C2=121.18                H7-C1-C2=118.47                H7-C1-C6=119.03                C3-C2-C1=121.20                
H8-C2-C1=118.47                H8-C2-C3=119.00                H9-C3-C2=119.19                H10-C3-C2=119.97               
H10-C3-H9=114.72               H11-C4-C5=119.12               H12-C4-C5=119.30               H12-C4-H11=115.57              
H13-C5-C4=119.10               H14-C5-C4=119.33               H14-C5-H13=115.55              H15-C6-C1=119.25               
H16-C6-C1=119.87               H16-C6-H15=114.78              

 selected dihedral angles (degree)
 ---------------------------------
C3-C2-C1-C6=359.96            C3-C2-C1-H7=193.24            H8-C2-C1-C6=166.67            H8-C2-C1-H7=359.95            
H9-C3-C2-C1=171.68            H9-C3-C2-H8=  5.04            H10-C3-C2-C1=322.74           H10-C3-C2-H8=156.10           
H13-C5-C4-H11=359.96          H13-C5-C4-H12=208.42          H14-C5-C4-H11=151.45          H14-C5-C4-H12=359.91          
H15-C6-C1-C2=188.27           H15-C6-C1-H7=354.92           H16-C6-C1-C2= 37.17           H16-C6-C1-H7=203.81           

 CMA Distance (Angstroems)
 ---------------------------
R(CMA):  2.3890
           -------------------------------------------------
          |                Final Singlepoint                |
           -------------------------------------------------

          ...................................................
          :                      SETUP                      :
          :.................................................:
          :  # basis functions                  34          :
          :  # atomic orbitals                  34          :
          :  # shells                           22          :
          :  # electrons                        34          :
          :  max. iterations                   250          :
          :  Hamiltonian                  GFN2-xTB          :
          :  restarted?                      false          :
          :  GBSA solvation                  false          :
          :  PC potential                    false          :
          :  electronic temp.          300.0000000     K    :
          :  accuracy                    1.0000000          :
          :  -> integral cutoff          0.2500000E+02      :
          :  -> integral neglect         0.1000000E-07      :
          :  -> SCF convergence          0.1000000E-05 Eh   :
          :  -> wf. convergence          0.1000000E-03 e    :
          :  Broyden damping             0.4000000          :
          ...................................................

 iter      E             dE          RMSdq      gap      omega  full diag
   1    -18.1401766 -0.181402E+02  0.184E-05    4.07       0.0  T
   2    -18.1401766 -0.603961E-12  0.941E-06    4.07    2655.9  T
   3    -18.1401766 -0.337508E-12  0.757E-06    4.07    3300.6  T

   *** convergence criteria satisfied after 3 iterations ***

         #    Occupation            Energy/Eh            Energy/eV
      -------------------------------------------------------------
         1        2.0000           -0.6191926             -16.8491
       ...           ...                  ...                  ...
        11        2.0000           -0.4638490             -12.6220
        12        2.0000           -0.4576849             -12.4542
        13        2.0000           -0.4398053             -11.9677
        14        2.0000           -0.4286384             -11.6638
        15        2.0000           -0.4209628             -11.4550
        16        2.0000           -0.3786025             -10.3023
        17        2.0000           -0.3753629             -10.2141 (HOMO)
        18                         -0.2258605              -6.1460 (LUMO)
        19                         -0.2089157              -5.6849
        20                         -0.1166096              -3.1731
        21                          0.1318366               3.5875
        22                          0.1390089               3.7826
       ...                                ...                  ...
        34                          0.5622483              15.2996
      -------------------------------------------------------------
                  HL-Gap            0.1495025 Eh            4.0682 eV
             Fermi-level           -0.3006117 Eh           -8.1801 eV

 SCC (total)                   0 d,  0 h,  0 min,  0.004 sec
 SCC setup                      ...        0 min,  0.000 sec (  4.648%)
 Dispersion                     ...        0 min,  0.000 sec (  2.029%)
 classical contributions        ...        0 min,  0.000 sec (  0.378%)
 integral evaluation            ...        0 min,  0.000 sec (  9.170%)
 iterations                     ...        0 min,  0.002 sec ( 50.223%)
 molecular gradient             ...        0 min,  0.001 sec ( 25.725%)
 printout                       ...        0 min,  0.000 sec (  7.087%)

         :::::::::::::::::::::::::::::::::::::::::::::::::::::
         ::                     SUMMARY                     ::
         :::::::::::::::::::::::::::::::::::::::::::::::::::::
         :: total energy             -17.817358731976 Eh    ::
         :: gradient norm              0.000823616133 Eh/a0 ::
         :: HOMO-LUMO gap              4.068169256407 eV    ::
         ::.................................................::
         :: SCC energy               -18.140176636284 Eh    ::
         :: -> isotropic ES            0.002877315097 Eh    ::
         :: -> anisotropic ES          0.006550151891 Eh    ::
         :: -> anisotropic XC          0.015463380929 Eh    ::
         :: -> dispersion             -0.011216300770 Eh    ::
         :: repulsion energy           0.322683609768 Eh    ::
         :: add. restraining           0.000107266549 Eh    ::
         :: total charge              -0.000000000000 e     ::
         :::::::::::::::::::::::::::::::::::::::::::::::::::::

           -------------------------------------------------
          |                Property Printout                |
           -------------------------------------------------

    * Orbital Energies and Occupations

         #    Occupation            Energy/Eh            Energy/eV
      -------------------------------------------------------------
         1        2.0000           -0.6191926             -16.8491
       ...           ...                  ...                  ...
         5        2.0000           -0.5489451             -14.9376
         6        2.0000           -0.5210631             -14.1788
         7        2.0000           -0.5152545             -14.0208
         8        2.0000           -0.5039470             -13.7131
         9        2.0000           -0.4764175             -12.9640
        10        2.0000           -0.4674984             -12.7213
        11        2.0000           -0.4638490             -12.6220
        12        2.0000           -0.4576849             -12.4542
        13        2.0000           -0.4398053             -11.9677
        14        2.0000           -0.4286384             -11.6638
        15        2.0000           -0.4209628             -11.4550
        16        2.0000           -0.3786025             -10.3023
        17        2.0000           -0.3753629             -10.2141 (HOMO)
        18                         -0.2258605              -6.1460 (LUMO)
        19                         -0.2089157              -5.6849
        20                         -0.1166096              -3.1731
        21                          0.1318366               3.5875
        22                          0.1390089               3.7826
        23                          0.1517277               4.1287
        24                          0.1729164               4.7053
        25                          0.1729741               4.7069
        26                          0.2018775               5.4934
        27                          0.2069778               5.6322
        28                          0.2985494               8.1239
       ...                                ...                  ...
        34                          0.5622483              15.2996
      -------------------------------------------------------------
                  HL-Gap            0.1495025 Eh            4.0682 eV
             Fermi-level           -0.3006117 Eh           -8.1801 eV

     #   Z          covCN         q      C6AA      α(0)
     1   6 C        2.900    -0.037    28.922     8.818
     2   6 C        2.900    -0.037    28.921     8.818
     3   6 C        3.045    -0.070    29.698     8.938
     4   6 C        3.031    -0.073    29.788     8.952
     5   6 C        3.031    -0.073    29.786     8.952
     6   6 C        3.045    -0.070    29.698     8.938
     7   1 H        0.925     0.025     2.658     2.550
     8   1 H        0.925     0.025     2.658     2.550
     9   1 H        0.926     0.033     2.548     2.496
    10   1 H        0.926     0.047     2.353     2.399
    11   1 H        0.926     0.036     2.509     2.477
    12   1 H        0.926     0.039     2.456     2.451
    13   1 H        0.926     0.035     2.511     2.478
    14   1 H        0.926     0.039     2.457     2.451
    15   1 H        0.926     0.033     2.547     2.495
    16   1 H        0.926     0.047     2.352     2.398

 Mol. C6AA /au·bohr⁶  :       2340.603873
 Mol. C8AA /au·bohr⁸  :      52955.346869
 Mol. α(0) /au        :         78.160433


Wiberg/Mayer (AO) data.
largest (>0.10) Wiberg bond orders for each atom

 ---------------------------------------------------------------------------
     #   Z sym  total        # sym  WBO       # sym  WBO       # sym  WBO
 ---------------------------------------------------------------------------
     1   6 C    3.990 --     6 C    1.464     2 C    1.427     7 H    0.968
     2   6 C    3.990 --     3 C    1.464     1 C    1.427     8 H    0.968
     3   6 C    3.992 --     2 C    1.464     9 H    0.983    10 H    0.967
                             4 C    0.429     6 C    0.119
     4   6 C    3.993 --     5 C    1.493    11 H    0.979    12 H    0.976
                             3 C    0.429
     5   6 C    3.993 --     4 C    1.493    13 H    0.979    14 H    0.976
                             6 C    0.429
     6   6 C    3.992 --     1 C    1.464    15 H    0.983    16 H    0.967
                             5 C    0.429     3 C    0.119
     7   1 H    0.999 --     1 C    0.968
     8   1 H    0.999 --     2 C    0.968
     9   1 H    0.999 --     3 C    0.983
    10   1 H    0.998 --     3 C    0.967
    11   1 H    0.999 --     4 C    0.979
    12   1 H    0.998 --     4 C    0.976
    13   1 H    0.999 --     5 C    0.979
    14   1 H    0.998 --     5 C    0.976
    15   1 H    0.999 --     6 C    0.983
    16   1 H    0.998 --     6 C    0.967
 ---------------------------------------------------------------------------

Topologies differ in total number of bonds
Writing topology from bond orders to xtbtopo.mol

molecular dipole:
                 x           y           z       tot (Debye)
 q only:        0.006      -0.140      -0.082
   full:        0.023      -0.178      -0.053       0.476
molecular quadrupole (traceless):
                xx          xy          yy          xz          yz          zz
 q only:        0.432       0.412      -0.517      -0.279       0.511       0.085
  q+dip:        1.293       1.770      -1.623      -1.219       3.038       0.331
   full:        0.760       1.034      -1.140      -0.620       1.656       0.380

           -------------------------------------------------
          |                Geometry Summary                 |
           -------------------------------------------------

      molecular mass/u    :       82.1438229
   center of mass at/Å    :       -0.0325299       0.1410413      -0.0036447
  moments of inertia/u·Å² :        0.1141109E+03   0.1359657E+03   0.2106405E+03
rotational constants/cm⁻¹ :        0.1477302E+00   0.1239844E+00   0.8003034E-01

 * 14 selected distances

     #   Z          #   Z                                           value/Å
     1   6 C        2   6 C                                       1.3859600
     2   6 C        3   6 C                                       1.3835833
     4   6 C        5   6 C                                       1.3883935 (max)
     1   6 C        6   6 C                                       1.3833113
     1   6 C        7   1 H                                       1.0816107
     2   6 C        8   1 H                                       1.0818934
     3   6 C        9   1 H                                       1.0788177
     3   6 C       10   1 H                                       1.0761618
     4   6 C       11   1 H                                       1.0767209
     4   6 C       12   1 H                                       1.0771090
     5   6 C       13   1 H                                       1.0770609
     5   6 C       14   1 H                                       1.0773831
     6   6 C       15   1 H                                       1.0785925
     6   6 C       16   1 H                                       1.0760765 (min)

 * 2 distinct bonds (by element types)

   Z      Z             #   av. dist./Å        max./Å        min./Å
   1 H    6 C          10     1.0781427     1.0818934     1.0760765
   6 C    6 C           4     1.3853120     1.3883935     1.3833113


optimized geometry written to: xtbopt.xyz


           -------------------------------------------------
          | TOTAL ENERGY              -17.817358731976 Eh   |
          | GRADIENT NORM               0.000823616133 Eh/α |
          | HOMO-LUMO GAP               4.068169256407 eV   |
           -------------------------------------------------

------------------------------------------------------------------------
 * finished run on 2025/05/23 at 11:05:33.800     
------------------------------------------------------------------------
 total:
 * wall-time:     0 d,  0 h,  0 min,  0.241 sec
 *  cpu-time:     0 d,  0 h,  0 min,  3.467 sec
 * ratio c/w:    14.409 speedup
 SCF:
 * wall-time:     0 d,  0 h,  0 min,  0.010 sec
 *  cpu-time:     0 d,  0 h,  0 min,  0.148 sec
 * ratio c/w:    14.673 speedup
 ANC optimizer:
 * wall-time:     0 d,  0 h,  0 min,  0.221 sec
 *  cpu-time:     0 d,  0 h,  0 min,  3.217 sec
 * ratio c/w:    14.581 speedup

