      -----------------------------------------------------------      
     |                   =====================                   |     
     |                           x T B                           |     
     |                   =====================                   |     
     |                         S. Grimme                         |     
     |          Mulliken Center for Theoretical Chemistry        |     
     |                    University of Bonn                     |     
      -----------------------------------------------------------      

   * xtb version 6.6.1 (8d0f1dd) compiled by 'conda@1efc2f54142f' on 2023-08-01

   xtb is free software: you can redistribute it and/or modify it under
   the terms of the GNU Lesser General Public License as published by
   the Free Software Foundation, either version 3 of the License, or
   (at your option) any later version.
   
   xtb is distributed in the hope that it will be useful,
   but WITHOUT ANY WARRANTY; without even the implied warranty of
   MERCHANTABILITY or FITNESS FOR A PARTICULAR PURPOSE.  See the
   GNU Lesser General Public License for more details.
   
   Cite this work as:
   * C. Bannwarth, E. Caldeweyher, S. Ehlert, A. Hansen, P. Pracht,
     J. Seibert, S. Spicher, S. Grimme, WIREs Comput. Mol. Sci., 2020, 11,
     e01493. DOI: 10.1002/wcms.1493
   
   for GFN2-xTB:
   * C. Bannwarth, S. Ehlert and S. Grimme., J. Chem. Theory Comput., 2019,
     15, 1652-1671. DOI: 10.1021/acs.jctc.8b01176
   for GFN1-xTB:
   * S. Grimme, C. Bannwarth, P. Shushkov, J. Chem. Theory Comput., 2017,
     13, 1989-2009. DOI: 10.1021/acs.jctc.7b00118
   for GFN0-xTB:
   * P. Pracht, E. Caldeweyher, S. Ehlert, S. Grimme, ChemRxiv, 2019, preprint.
     DOI: 10.26434/chemrxiv.8326202.v1
   for GFN-FF:
   * S. Spicher and S. Grimme, Angew. Chem. Int. Ed., 2020, 59, 15665-15673.
     DOI: 10.1002/anie.202004239
   
   for ALPB and GBSA implicit solvation:
   * S. Ehlert, M. Stahn, S. Spicher, S. Grimme, J. Chem. Theory Comput.,
     2021, 17, 4250-4261. DOI: 10.1021/acs.jctc.1c00471
   
   for DFT-D4:
   * E. Caldeweyher, C. Bannwarth and S. Grimme, J. Chem. Phys., 2017,
     147, 034112. DOI: 10.1063/1.4993215
   * E. Caldeweyher, S. Ehlert, A. Hansen, H. Neugebauer, S. Spicher,
     C. Bannwarth and S. Grimme, J. Chem. Phys., 2019, 150, 154122.
     DOI: 10.1063/1.5090222
   * E. Caldeweyher, J.-M. Mewes, S. Ehlert and S. Grimme, Phys. Chem. Chem. Phys.
     2020, 22, 8499-8512. DOI: 10.1039/D0CP00502A
   
   for sTDA-xTB:
   * S. Grimme and C. Bannwarth, J. Chem. Phys., 2016, 145, 054103.
     DOI: 10.1063/1.4959605
   
   in the mass-spec context:
   * V. Asgeirsson, C. Bauer and S. Grimme, Chem. Sci., 2017, 8, 4879.
     DOI: 10.1039/c7sc00601b
   * J. Koopman and S. Grimme, ACS Omega 2019, 4, 12, 15120-15133.
     DOI: 10.1021/acsomega.9b02011
   
   for metadynamics refer to:
   * S. Grimme, J. Chem. Theory Comput., 2019, 155, 2847-2862
     DOI: 10.1021/acs.jctc.9b00143
   
   for SPH calculations refer to:
   * S. Spicher and S. Grimme, J. Chem. Theory Comput., 2021, 17, 1701-1714
     DOI: 10.1021/acs.jctc.0c01306
   
   with help from (in alphabetical order)
   P. Atkinson, C. Bannwarth, F. Bohle, G. Brandenburg, E. Caldeweyher
   M. Checinski, S. Dohm, S. Ehlert, S. Ehrlich, I. Gerasimov, C. Hölzer
   A. Katbashev, J. Koopman, C. Lavigne, S. Lehtola, F. März, M. Müller,
   F. Musil, H. Neugebauer, J. Pisarek, C. Plett, P. Pracht, F. Pultar,
   J. Seibert, P. Shushkov, S. Spicher, M. Stahn, M. Steiner, T. Strunk,
   J. Stückrath, T. Rose, and J. Unsleber
   
 * started run on 2025/05/23 at 11:05:31.203     

           -------------------------------------------------
          |                Calculation Setup                |
           -------------------------------------------------

          program call               : /gpfs/fs1/home/copan/code/autode-practice/.pixi/envs/default/bin/xtb path_opt2_xtb.xyz --chrg 0 --uhf 0 --opt --input xcontrol_path_opt2_xtb
          hostname                   : beboplogin4.lcrc.anl.gov
          coordinate file            : path_opt2_xtb.xyz
          omp threads                :                     8

   ID    Z sym.   atoms
    1    6 C      1-6
    2    1 H      7-16
constraining bond 3 4 to    1.8083000 Å, actual value:    1.7582005 Å
constraining bond 5 6 to    1.8081000 Å, actual value:    1.7580053 Å

           -------------------------------------------------
          |                 G F N 2 - x T B                 |
           -------------------------------------------------

        Reference                      10.1021/acs.jctc.8b01176
      * Hamiltonian:
        H0-scaling (s, p, d)           1.850000    2.230000    2.230000
        zeta-weighting                 0.500000
      * Dispersion:
        s8                             2.700000
        a1                             0.520000
        a2                             5.000000
        s9                             5.000000
      * Repulsion:
        kExp                           1.500000    1.000000
        rExp                           1.000000
      * Coulomb:
        alpha                          2.000000
        third order                    shell-resolved
        anisotropic                    true
        a3                             3.000000
        a5                             4.000000
        cn-shift                       1.200000
        cn-exp                         4.000000
        max-rad                        5.000000


          ...................................................
          :                      SETUP                      :
          :.................................................:
          :  # basis functions                  34          :
          :  # atomic orbitals                  34          :
          :  # shells                           22          :
          :  # electrons                        34          :
          :  max. iterations                   250          :
          :  Hamiltonian                  GFN2-xTB          :
          :  restarted?                      false          :
          :  GBSA solvation                  false          :
          :  PC potential                    false          :
          :  electronic temp.          300.0000000     K    :
          :  accuracy                    1.0000000          :
          :  -> integral cutoff          0.2500000E+02      :
          :  -> integral neglect         0.1000000E-07      :
          :  -> SCF convergence          0.1000000E-05 Eh   :
          :  -> wf. convergence          0.1000000E-03 e    :
          :  Broyden damping             0.4000000          :
          ...................................................

 iter      E             dE          RMSdq      gap      omega  full diag
   1    -18.1465320 -0.181465E+02  0.321E+00    5.28       0.0  T
   2    -18.1759508 -0.294189E-01  0.182E+00    5.20       1.0  T
   3    -18.1764471 -0.496298E-03  0.678E-01    5.16       1.0  T
   4    -18.1765110 -0.639148E-04  0.151E-01    5.16       1.0  T
   5    -18.1767660 -0.254997E-03  0.535E-02    5.16       1.0  T
   6    -18.1767684 -0.232684E-05  0.170E-02    5.16       1.5  T
   7    -18.1767686 -0.225137E-06  0.203E-03    5.16      12.3  T
   8    -18.1767686  0.315761E-08  0.784E-04    5.16      31.9  T
   9    -18.1767686 -0.675041E-08  0.212E-04    5.16     118.0  T

   *** convergence criteria satisfied after 9 iterations ***

         #    Occupation            Energy/Eh            Energy/eV
      -------------------------------------------------------------
         1        2.0000           -0.6185044             -16.8304
       ...           ...                  ...                  ...
        11        2.0000           -0.4685539             -12.7500
        12        2.0000           -0.4641381             -12.6298
        13        2.0000           -0.4464707             -12.1491
        14        2.0000           -0.4362923             -11.8721
        15        2.0000           -0.4105138             -11.1706
        16        2.0000           -0.3989114             -10.8549
        17        2.0000           -0.3796206             -10.3300 (HOMO)
        18                         -0.1900383              -5.1712 (LUMO)
        19                         -0.0847082              -2.3050
        20                         -0.0625478              -1.7020
        21                          0.1176686               3.2019
        22                          0.1312000               3.5701
       ...                                ...                  ...
        34                          0.6427467              17.4900
      -------------------------------------------------------------
                  HL-Gap            0.1895823 Eh            5.1588 eV
             Fermi-level           -0.2848295 Eh           -7.7506 eV

 SCC (total)                   0 d,  0 h,  0 min,  0.009 sec
 SCC setup                      ...        0 min,  0.000 sec (  2.727%)
 Dispersion                     ...        0 min,  0.000 sec (  1.468%)
 classical contributions        ...        0 min,  0.000 sec (  2.332%)
 integral evaluation            ...        0 min,  0.000 sec (  4.940%)
 iterations                     ...        0 min,  0.007 sec ( 73.531%)
 molecular gradient             ...        0 min,  0.001 sec ( 11.230%)
 printout                       ...        0 min,  0.000 sec (  3.484%)

         :::::::::::::::::::::::::::::::::::::::::::::::::::::
         ::                     SUMMARY                     ::
         :::::::::::::::::::::::::::::::::::::::::::::::::::::
         :: total energy             -17.857690123528 Eh    ::
         :: gradient norm              0.612285359932 Eh/a0 ::
         :: HOMO-LUMO gap              5.158795657937 eV    ::
         ::.................................................::
         :: SCC energy               -18.176768582182 Eh    ::
         :: -> isotropic ES            0.002524664191 Eh    ::
         :: -> anisotropic ES          0.005984993901 Eh    ::
         :: -> anisotropic XC          0.012508842856 Eh    ::
         :: -> dispersion             -0.009867202511 Eh    ::
         :: repulsion energy           0.283205302471 Eh    ::
         :: add. restraining           0.035849517690 Eh    ::
         :: total charge               0.000000000000 e     ::
         :::::::::::::::::::::::::::::::::::::::::::::::::::::

      ----------------------------------------------------------- 
     |                   =====================                   |
     |                        A N C O P T                        |
     |                   =====================                   |
     |               Approximate Normal Coordinate               |
     |                Rational Function Optimizer                |
      ----------------------------------------------------------- 

          ...................................................
          :                      SETUP                      :
          :.................................................:
          :   optimization level            normal          :
          :   max. optcycles                   200          :
          :   ANC micro-cycles                  20          :
          :   degrees of freedom                42          :
          :.................................................:
          :   RF solver                   davidson          :
          :   write xtbopt.log                true          :
          :   linear?                        false          :
          :   energy convergence         0.5000000E-05 Eh   :
          :   grad. convergence          0.1000000E-02 Eh/α :
          :   maxmium RF displ.          1.0000000          :
          :   Hlow (freq-cutoff)         0.1000000E-01      :
          :   Hmax (freq-cutoff)         5.0000000          :
          :   S6 in model hess.         20.0000000          :
          ...................................................

generating ANC from model Hessian ...
Using Lindh-Hessian (1995)
 Shifting diagonal of input Hessian by    6.3021185521363057E-002
 Lowest  eigenvalues of input Hessian
    0.010000    0.022294    0.039187    0.061868    0.000000    0.000000
    0.000000    0.000000    0.000000    0.000000    0.077914    0.078103
    0.081237    0.088952    0.093664    0.095263    0.100799    0.103094
 Highest eigenvalues
    1.214489    1.261945    1.536151    1.985184    8.700552    8.712606


........................................................................
.............................. CYCLE    1 ..............................
........................................................................

 iter      E             dE          RMSdq      gap      omega  full diag
   1    -18.1767686 -0.181768E+02  0.896E-05    5.16       0.0  T
   2    -18.1767686 -0.437694E-11  0.511E-05    5.16     489.3  T
   3    -18.1767686  0.483880E-11  0.265E-05    5.16     943.0  T
     SCC iter.                  ...        0 min,  0.002 sec
     gradient                   ...        0 min,  0.001 sec
 * total energy  :   -17.8576901 Eh     change       -0.1144222E-09 Eh
   gradient norm :     0.6122855 Eh/α   predicted     0.0000000E+00 (-100.00%)
   displ. norm   :     0.1309950 α      lambda       -0.7461055E-01
   maximum displ.:     0.1205869 α      in ANC's #41, #27, #18, ...

........................................................................
.............................. CYCLE    2 ..............................
........................................................................

 iter      E             dE          RMSdq      gap      omega  full diag
   1    -18.1643432 -0.181643E+02  0.125E-01    5.09       0.0  T
   2    -18.1643552 -0.120415E-04  0.765E-02    5.09       1.0  T
   3    -18.1643551  0.141394E-06  0.131E-02    5.09       1.9  T
   4    -18.1643555 -0.367665E-06  0.323E-03    5.09       7.7  T
   5    -18.1643556 -0.120432E-06  0.127E-03    5.09      19.7  T
   6    -18.1643556 -0.344637E-08  0.473E-04    5.09      52.8  T
   7    -18.1643556  0.377621E-09  0.230E-04    5.09     108.5  T
     SCC iter.                  ...        0 min,  0.003 sec
     gradient                   ...        0 min,  0.001 sec
 * total energy  :   -17.8715875 Eh     change       -0.1389742E-01 Eh
   gradient norm :     0.3859250 Eh/α   predicted    -0.3794541E-01 ( 173.04%)
   displ. norm   :     0.0483359 α      lambda       -0.1803902E-01
   maximum displ.:     0.0466240 α      in ANC's #41, #2, #15, ...

........................................................................
.............................. CYCLE    3 ..............................
........................................................................

 iter      E             dE          RMSdq      gap      omega  full diag
   1    -18.1669145 -0.181669E+02  0.675E-02    5.12       0.0  T
   2    -18.1669181 -0.356467E-05  0.398E-02    5.12       1.0  T
   3    -18.1669180  0.169137E-07  0.766E-03    5.12       3.3  T
   4    -18.1669181 -0.714344E-07  0.109E-03    5.12      23.0  T
   5    -18.1669181 -0.136797E-07  0.408E-04    5.12      61.3  T
   6    -18.1669181 -0.737330E-09  0.205E-04    5.12     121.8  T
     SCC iter.                  ...        0 min,  0.003 sec
     gradient                   ...        0 min,  0.001 sec
 * total energy  :   -17.8806771 Eh     change       -0.9089516E-02 Eh
   gradient norm :     0.0034989 Eh/α   predicted    -0.9040580E-02 (  -0.54%)
   displ. norm   :     0.0165216 α      lambda       -0.3267426E-04
   maximum displ.:     0.0068431 α      in ANC's #9, #18, #15, ...

........................................................................
.............................. CYCLE    4 ..............................
........................................................................

 iter      E             dE          RMSdq      gap      omega  full diag
   1    -18.1660282 -0.181660E+02  0.188E-02    5.12       0.0  T
   2    -18.1660283 -0.708819E-07  0.108E-02    5.12       2.3  T
   3    -18.1660283 -0.169496E-09  0.109E-03    5.12      23.0  T
   4    -18.1660283 -0.476280E-08  0.353E-04    5.12      70.8  T
   5    -18.1660283 -0.116120E-08  0.143E-04    5.12     174.9  T
     SCC iter.                  ...        0 min,  0.003 sec
     gradient                   ...        0 min,  0.001 sec
 * total energy  :   -17.8806999 Eh     change       -0.2280366E-04 Eh
   gradient norm :     0.0013537 Eh/α   predicted    -0.1634169E-04 ( -28.34%)
   displ. norm   :     0.0759320 α      lambda       -0.4003092E-04
   maximum displ.:     0.0597397 α      in ANC's #1, #2, #9, ...

........................................................................
.............................. CYCLE    5 ..............................
........................................................................

 iter      E             dE          RMSdq      gap      omega  full diag
   1    -18.1636928 -0.181637E+02  0.844E-02    5.13       0.0  T
   2    -18.1636936 -0.775285E-06  0.497E-02    5.13       1.0  T
   3    -18.1636931  0.529880E-06  0.719E-03    5.13       3.5  T
   4    -18.1636936 -0.556170E-06  0.273E-03    5.13       9.1  T
   5    -18.1636937 -0.936952E-07  0.580E-04    5.13      43.1  T
   6    -18.1636937 -0.113040E-09  0.169E-04    5.13     148.2  T
     SCC iter.                  ...        0 min,  0.003 sec
     gradient                   ...        0 min,  0.001 sec
 * total energy  :   -17.8805650 Eh     change        0.1348535E-03 Eh
   gradient norm :     0.0084599 Eh/α   predicted    -0.2006775E-04 (-114.88%)
   displ. norm   :     0.0434994 α      lambda       -0.2011894E-03
   maximum displ.:     0.0424546 α      in ANC's #1, #4, #18, ...

........................................................................
.............................. CYCLE    6 ..............................
........................................................................

 iter      E             dE          RMSdq      gap      omega  full diag
   1    -18.1643862 -0.181644E+02  0.526E-02    5.13       0.0  T
   2    -18.1643864 -0.187934E-06  0.312E-02    5.13       1.0  T
   3    -18.1643861  0.271925E-06  0.483E-03    5.13       5.2  T
   4    -18.1643864 -0.297818E-06  0.127E-03    5.13      19.7  T
   5    -18.1643864 -0.190224E-07  0.348E-04    5.13      71.8  T
   6    -18.1643864  0.181473E-10  0.174E-04    5.13     143.9  T
     SCC iter.                  ...        0 min,  0.003 sec
     gradient                   ...        0 min,  0.001 sec
 * total energy  :   -17.8806926 Eh     change       -0.1276113E-03 Eh
   gradient norm :     0.0030046 Eh/α   predicted    -0.1007847E-03 ( -21.02%)
   displ. norm   :     0.0405882 α      lambda       -0.5710823E-04
   maximum displ.:     0.0314870 α      in ANC's #2, #1, #15, ...

........................................................................
.............................. CYCLE    7 ..............................
........................................................................

 iter      E             dE          RMSdq      gap      omega  full diag
   1    -18.1655615 -0.181656E+02  0.482E-02    5.12       0.0  T
   2    -18.1655617 -0.168441E-06  0.283E-02    5.12       1.0  T
   3    -18.1655616  0.674935E-07  0.274E-03    5.12       9.1  T
   4    -18.1655617 -0.823229E-07  0.985E-04    5.12      25.4  T
   5    -18.1655617 -0.105515E-07  0.351E-04    5.12      71.3  T
     SCC iter.                  ...        0 min,  0.003 sec
     gradient                   ...        0 min,  0.001 sec
 * total energy  :   -17.8806918 Eh     change        0.8713765E-06 Eh
   gradient norm :     0.0032179 Eh/α   predicted    -0.2860320E-04 (*******%)
   displ. norm   :     0.0278160 α      lambda       -0.4666862E-04
   maximum displ.:     0.0271430 α      in ANC's #2, #1, #5, ...

........................................................................
.............................. CYCLE    8 ..............................
........................................................................

 iter      E             dE          RMSdq      gap      omega  full diag
   1    -18.1657939 -0.181658E+02  0.338E-02    5.12       0.0  T
   2    -18.1657939 -0.403907E-07  0.200E-02    5.12       1.3  T
   3    -18.1657938  0.823815E-07  0.256E-03    5.13       9.8  T
   4    -18.1657939 -0.100502E-06  0.324E-04    5.13      77.2  T
   5    -18.1657939 -0.881322E-10  0.156E-04    5.13     159.8  T
     SCC iter.                  ...        0 min,  0.003 sec
     gradient                   ...        0 min,  0.001 sec
 * total energy  :   -17.8807093 Eh     change       -0.1750213E-04 Eh
   gradient norm :     0.0015186 Eh/α   predicted    -0.2335416E-04 (  33.44%)
   displ. norm   :     0.0154893 α      lambda       -0.7348996E-05
   maximum displ.:     0.0085921 α      in ANC's #9, #1, #18, ...

........................................................................
.............................. CYCLE    9 ..............................
........................................................................

 iter      E             dE          RMSdq      gap      omega  full diag
   1    -18.1649050 -0.181649E+02  0.188E-02    5.12       0.0  T
   2    -18.1649051 -0.935578E-07  0.109E-02    5.12       2.3  T
   3    -18.1649051  0.410950E-07  0.218E-03    5.12      11.5  T
   4    -18.1649051 -0.469218E-07  0.680E-04    5.12      36.8  T
   5    -18.1649051 -0.566122E-08  0.192E-04    5.12     130.2  T
     SCC iter.                  ...        0 min,  0.003 sec
     gradient                   ...        0 min,  0.001 sec
 * total energy  :   -17.8807103 Eh     change       -0.1025871E-05 Eh
   gradient norm :     0.0014780 Eh/α   predicted    -0.3675732E-05 ( 258.30%)
   displ. norm   :     0.0078448 α      lambda       -0.3466218E-05
   maximum displ.:     0.0037189 α      in ANC's #15, #18, #11, ...

........................................................................
.............................. CYCLE   10 ..............................
........................................................................

 iter      E             dE          RMSdq      gap      omega  full diag
   1    -18.1654072 -0.181654E+02  0.898E-03    5.12       0.0  T
   2    -18.1654072 -0.260411E-07  0.518E-03    5.12       4.8  T
   3    -18.1654072  0.869256E-08  0.107E-03    5.12      23.4  T
   4    -18.1654072 -0.941905E-08  0.393E-04    5.12      63.6  T
   5    -18.1654072 -0.192411E-08  0.923E-05    5.12     270.8  T
     SCC iter.                  ...        0 min,  0.003 sec
     gradient                   ...        0 min,  0.001 sec
 * total energy  :   -17.8807131 Eh     change       -0.2831356E-05 Eh
   gradient norm :     0.0001744 Eh/α   predicted    -0.1733555E-05 ( -38.77%)
   displ. norm   :     0.0065945 α      lambda       -0.6734100E-06
   maximum displ.:     0.0053181 α      in ANC's #2, #9, #4, ...

   *** GEOMETRY OPTIMIZATION CONVERGED AFTER 10 ITERATIONS ***

------------------------------------------------------------------------
 total energy gain   :        -0.0230230 Eh      -14.4471 kcal/mol
 total RMSD          :         0.0294017 a0        0.0156 Å
 total power (kW/mol):        -6.0446849 (step)-1106.4275 (real)
------------------------------------------------------------------------

 ANCopt (total)                0 d,  0 h,  0 min,  0.055 sec
 optimizer setup                ...        0 min,  0.000 sec (  0.316%)
 model hessian                  ...        0 min,  0.008 sec ( 14.153%)
 ANC generation                 ...        0 min,  0.000 sec (  0.819%)
 coordinate transformation      ...        0 min,  0.000 sec (  0.113%)
 single point calculation       ...        0 min,  0.041 sec ( 75.242%)
 optimization log               ...        0 min,  0.002 sec (  2.985%)
 hessian update                 ...        0 min,  0.000 sec (  0.202%)
 rational function              ...        0 min,  0.002 sec (  2.812%)

================
 final structure:
================
16
 xtb: 6.6.1 (8d0f1dd)
C            0.23637809952533        1.53128330471501       -0.31571991912373
C           -1.02510248137286        1.20106237920997       -0.08626137609110
C           -1.54621943989791       -0.15104779721223        0.22531037359713
C           -0.20005550993230       -1.25122888234555        0.68387568497402
C            0.87646500170977       -1.09161457385713       -0.33742553848392
C            1.40904947057752        0.62501954090508       -0.29675814481259
H            0.47612967241354        2.56689094081001       -0.53151029871569
H           -1.78595713555626        1.97259132968242       -0.13480987282001
H           -2.23043828830875       -0.14247602577884        1.06858160493875
H           -2.02207097947794       -0.61242947061451       -0.63675460419075
H            0.11140021762355       -0.94406392604087        1.67590198342213
H           -0.63077637617557       -2.24813671560264        0.70228851675220
H            1.76453734889583       -1.67839120834352       -0.12135687552841
H            0.52816197771301       -1.27182256817017       -1.34823870749434
H            1.99010179906702        0.73082433812127        0.61632075759596
H            2.04849662319601        0.76381933452169       -1.16347358401966

 Bond Distances (Angstroems)
 ---------------------------
C1-C2=1.3240         C1-C6=1.4822         C1-H7=1.0847         C2-C1=1.3240         C2-C3=1.4822         C2-H8=1.0847         
C3-C2=1.4822         C3-C4=1.7980         C3-H9=1.0860         C3-H10=1.0874        C4-C3=1.7980         C4-C5=1.4925         
C4-H11=1.0842        C4-H12=1.0861        C5-C4=1.4925         C5-C6=1.7978         C5-H13=1.0861        C5-H14=1.0842        
C6-C1=1.4822         C6-C5=1.7978         C6-H15=1.0874        C6-H16=1.0860        H7-C1=1.0847         H8-C2=1.0847         
H9-C3=1.0860         H10-C3=1.0874        H11-C4=1.0842        H12-C4=1.0861        H13-C5=1.0861        H14-C5=1.0842        
H15-C6=1.0874        H16-C6=1.0860        
 C  H  Rav=1.0857 sigma=0.0011  Rmin=1.0842  Rmax=1.0874    10
 C  C  Rav=1.5628 sigma=0.1758  Rmin=1.3240  Rmax=1.7980     6

 selected bond angles (degree)
 --------------------
C6-C1-C2=126.81                H7-C1-C2=118.89                H7-C1-C6=114.30                C3-C2-C1=126.79                
H8-C2-C1=118.89                H8-C2-C3=114.31                C4-C3-C2=110.40                H9-C3-C2=112.18                
H9-C3-C4=106.17                H10-C3-C2=111.98               H10-C3-C4=105.68               H10-C3-H9=110.07               
C5-C4-C3=107.46                H11-C4-C3=105.97               H11-C4-C5=112.87               H12-C4-C3=105.61               
H12-C4-C5=113.32               H12-C4-H11=111.00              C6-C5-C4=107.48                H13-C5-C4=113.32               
H13-C5-C6=105.61               H14-C5-C4=112.86               H14-C5-C6=105.96               H14-C5-H13=111.00              
C5-C6-C1=110.44                H15-C6-C1=111.96               H15-C6-C5=105.68               H16-C6-C1=112.18               
H16-C6-C5=106.17               H16-C6-H15=110.06              

 selected dihedral angles (degree)
 ---------------------------------
C3-C2-C1-C6=359.25            C3-C2-C1-H7=180.08            H8-C2-C1-C6=180.07            H8-C2-C1-H7=  0.89            
C4-C3-C2-C1= 14.91            C4-C3-C2-H8=194.13            H9-C3-C2-C1=133.11            H9-C3-C2-H8=312.33            
H10-C3-C2-C1=257.46           H10-C3-C2-H8= 76.68           C5-C4-C3-C2=312.12            C5-C4-C3-H9=190.30            
C5-C4-C3-H10= 73.39           H11-C4-C3-C2= 73.03           H11-C4-C3-H9=311.21           H11-C4-C3-H10=194.30          
H12-C4-C3-C2=190.87           H12-C4-C3-H9= 69.05           H12-C4-C3-H10=312.14          C6-C5-C4-C3= 60.59            
C6-C5-C4-H11=304.12           C6-C5-C4-H12=176.87           H13-C5-C4-C3=176.88           H13-C5-C4-H11= 60.42          
H13-C5-C4-H12=293.16          H14-C5-C4-C3=304.13           H14-C5-C4-H11=187.66          H14-C5-C4-H12= 60.41          
C5-C6-C1-C2= 14.72            C5-C6-C1-H7=193.93            H15-C6-C1-C2=257.26           H15-C6-C1-H7= 76.46           
H16-C6-C1-C2=132.93           H16-C6-C1-H7=312.14           C1-C6-C5-C4=312.29            C1-C6-C5-H13=191.03           
C1-C6-C5-H14= 73.20           H15-C6-C5-C4= 73.56           H15-C6-C5-H13=312.30          H15-C6-C5-H14=194.47          
H16-C6-C5-C4=190.45           H16-C6-C5-H13= 69.19          H16-C6-C5-H14=311.36          
           -------------------------------------------------
          |                Final Singlepoint                |
           -------------------------------------------------

          ...................................................
          :                      SETUP                      :
          :.................................................:
          :  # basis functions                  34          :
          :  # atomic orbitals                  34          :
          :  # shells                           22          :
          :  # electrons                        34          :
          :  max. iterations                   250          :
          :  Hamiltonian                  GFN2-xTB          :
          :  restarted?                      false          :
          :  GBSA solvation                  false          :
          :  PC potential                    false          :
          :  electronic temp.          300.0000000     K    :
          :  accuracy                    1.0000000          :
          :  -> integral cutoff          0.2500000E+02      :
          :  -> integral neglect         0.1000000E-07      :
          :  -> SCF convergence          0.1000000E-05 Eh   :
          :  -> wf. convergence          0.1000000E-03 e    :
          :  Broyden damping             0.4000000          :
          ...................................................

 iter      E             dE          RMSdq      gap      omega  full diag
   1    -18.1654072 -0.181654E+02  0.477E-05    5.12       0.0  T
   2    -18.1654072 -0.234124E-11  0.300E-05    5.12     834.0  T
   3    -18.1654072 -0.540012E-12  0.198E-05    5.12    1260.7  T

   *** convergence criteria satisfied after 3 iterations ***

         #    Occupation            Energy/Eh            Energy/eV
      -------------------------------------------------------------
         1        2.0000           -0.6172952             -16.7975
       ...           ...                  ...                  ...
        11        2.0000           -0.4685770             -12.7506
        12        2.0000           -0.4635912             -12.6150
        13        2.0000           -0.4446774             -12.1003
        14        2.0000           -0.4375330             -11.9059
        15        2.0000           -0.4084516             -11.1145
        16        2.0000           -0.3964254             -10.7873
        17        2.0000           -0.3791373             -10.3168 (HOMO)
        18                         -0.1908001              -5.1919 (LUMO)
        19                         -0.1068807              -2.9084
        20                         -0.0841933              -2.2910
        21                          0.1171517               3.1879
        22                          0.1323475               3.6014
       ...                                ...                  ...
        34                          0.6431958              17.5022
      -------------------------------------------------------------
                  HL-Gap            0.1883371 Eh            5.1249 eV
             Fermi-level           -0.2849687 Eh           -7.7544 eV

 SCC (total)                   0 d,  0 h,  0 min,  0.004 sec
 SCC setup                      ...        0 min,  0.000 sec (  4.661%)
 Dispersion                     ...        0 min,  0.000 sec (  1.619%)
 classical contributions        ...        0 min,  0.000 sec (  0.277%)
 integral evaluation            ...        0 min,  0.000 sec (  8.934%)
 iterations                     ...        0 min,  0.002 sec ( 50.520%)
 molecular gradient             ...        0 min,  0.001 sec ( 25.775%)
 printout                       ...        0 min,  0.000 sec (  7.632%)

         :::::::::::::::::::::::::::::::::::::::::::::::::::::
         ::                     SUMMARY                     ::
         :::::::::::::::::::::::::::::::::::::::::::::::::::::
         :: total energy             -17.880713112590 Eh    ::
         :: gradient norm              0.000174473912 Eh/a0 ::
         :: HOMO-LUMO gap              5.124913958269 eV    ::
         ::.................................................::
         :: SCC energy               -18.165407237783 Eh    ::
         :: -> isotropic ES            0.002525389605 Eh    ::
         :: -> anisotropic ES          0.006265154329 Eh    ::
         :: -> anisotropic XC          0.012654363118 Eh    ::
         :: -> dispersion             -0.009847552976 Eh    ::
         :: repulsion energy           0.283157770130 Eh    ::
         :: add. restraining           0.001512023132 Eh    ::
         :: total charge               0.000000000000 e     ::
         :::::::::::::::::::::::::::::::::::::::::::::::::::::

           -------------------------------------------------
          |                Property Printout                |
           -------------------------------------------------

    * Orbital Energies and Occupations

         #    Occupation            Energy/Eh            Energy/eV
      -------------------------------------------------------------
         1        2.0000           -0.6172952             -16.7975
       ...           ...                  ...                  ...
         5        2.0000           -0.5543562             -15.0848
         6        2.0000           -0.5215978             -14.1934
         7        2.0000           -0.5115022             -13.9187
         8        2.0000           -0.4923715             -13.3981
         9        2.0000           -0.4790516             -13.0357
        10        2.0000           -0.4694659             -12.7748
        11        2.0000           -0.4685770             -12.7506
        12        2.0000           -0.4635912             -12.6150
        13        2.0000           -0.4446774             -12.1003
        14        2.0000           -0.4375330             -11.9059
        15        2.0000           -0.4084516             -11.1145
        16        2.0000           -0.3964254             -10.7873
        17        2.0000           -0.3791373             -10.3168 (HOMO)
        18                         -0.1908001              -5.1919 (LUMO)
        19                         -0.1068807              -2.9084
        20                         -0.0841933              -2.2910
        21                          0.1171517               3.1879
        22                          0.1323475               3.6014
        23                          0.1567926               4.2665
        24                          0.1625830               4.4241
        25                          0.1839762               5.0062
        26                          0.1909060               5.1948
        27                          0.2229954               6.0680
        28                          0.2321198               6.3163
       ...                                ...                  ...
        34                          0.6431958              17.5022
      -------------------------------------------------------------
                  HL-Gap            0.1883371 Eh            5.1249 eV
             Fermi-level           -0.2849687 Eh           -7.7544 eV

     #   Z          covCN         q      C6AA      α(0)
     1   6 C        2.887    -0.037    28.926     8.818
     2   6 C        2.887    -0.037    28.926     8.818
     3   6 C        3.673    -0.065    21.997     6.722
     4   6 C        3.669    -0.060    21.924     6.713
     5   6 C        3.670    -0.060    21.923     6.712
     6   6 C        3.673    -0.065    21.996     6.721
     7   1 H        0.925     0.023     2.685     2.562
     8   1 H        0.925     0.023     2.685     2.562
     9   1 H        0.925     0.035     2.512     2.479
    10   1 H        0.925     0.040     2.450     2.448
    11   1 H        0.925     0.035     2.511     2.478
    12   1 H        0.925     0.029     2.602     2.522
    13   1 H        0.925     0.029     2.602     2.522
    14   1 H        0.925     0.035     2.511     2.478
    15   1 H        0.925     0.040     2.451     2.448
    16   1 H        0.925     0.035     2.511     2.478

 Mol. C6AA /au·bohr⁶  :       2061.902270
 Mol. C8AA /au·bohr⁸  :      45744.843978
 Mol. α(0) /au        :         69.481333


Wiberg/Mayer (AO) data.
largest (>0.10) Wiberg bond orders for each atom

 ---------------------------------------------------------------------------
     #   Z sym  total        # sym  WBO       # sym  WBO       # sym  WBO
 ---------------------------------------------------------------------------
     1   6 C    3.992 --     2 C    1.918     6 C    1.045     7 H    0.960
     2   6 C    3.992 --     1 C    1.918     3 C    1.045     8 H    0.960
     3   6 C    3.994 --     2 C    1.045     9 H    0.973    10 H    0.966
                             4 C    0.955
     4   6 C    3.995 --     5 C    1.047    11 H    0.984    12 H    0.977
                             3 C    0.955
     5   6 C    3.995 --     4 C    1.047    14 H    0.984    13 H    0.977
                             6 C    0.956
     6   6 C    3.994 --     1 C    1.045    16 H    0.973    15 H    0.966
                             5 C    0.956
     7   1 H    0.999 --     1 C    0.960
     8   1 H    0.999 --     2 C    0.960
     9   1 H    0.999 --     3 C    0.973
    10   1 H    0.998 --     3 C    0.966
    11   1 H    0.999 --     4 C    0.984
    12   1 H    0.999 --     4 C    0.977
    13   1 H    0.999 --     5 C    0.977
    14   1 H    0.999 --     5 C    0.984
    15   1 H    0.998 --     6 C    0.966
    16   1 H    0.999 --     6 C    0.973
 ---------------------------------------------------------------------------

Topologies differ in total number of bonds
Writing topology from bond orders to xtbtopo.mol

molecular dipole:
                 x           y           z       tot (Debye)
 q only:        0.028      -0.097       0.014
   full:        0.030      -0.103       0.015       0.274
molecular quadrupole (traceless):
                xx          xy          yy          xz          yz          zz
 q only:        0.685       0.274      -0.274      -0.164      -0.057      -0.411
  q+dip:        1.450       0.496      -0.155      -0.022      -0.154      -1.295
   full:        0.980       0.375      -0.222      -0.011      -0.066      -0.757

           -------------------------------------------------
          |                Geometry Summary                 |
           -------------------------------------------------

      molecular mass/u    :       82.1438229
   center of mass at/Å    :       -0.0334161       0.1156619      -0.0170086
  moments of inertia/u·Å² :        0.1145558E+03   0.1203548E+03   0.2127417E+03
rotational constants/cm⁻¹ :        0.1471566E+00   0.1400662E+00   0.7923991E-01

 * 12 selected distances

     #   Z          #   Z                                           value/Å
     1   6 C        2   6 C                                       1.3240206
     4   6 C        5   6 C                                       1.4924576 (max)
     1   6 C        7   1 H                                       1.0846795
     2   6 C        8   1 H                                       1.0846723
     3   6 C        9   1 H                                       1.0859721
     3   6 C       10   1 H                                       1.0874116
     4   6 C       11   1 H                                       1.0841916 (min)
     4   6 C       12   1 H                                       1.0861330
     5   6 C       13   1 H                                       1.0861239
     5   6 C       14   1 H                                       1.0842202
     6   6 C       15   1 H                                       1.0874418
     6   6 C       16   1 H                                       1.0859806

 * 2 distinct bonds (by element types)

   Z      Z             #   av. dist./Å        max./Å        min./Å
   1 H    6 C          10     1.0856827     1.0874418     1.0841916
   6 C    6 C           2     1.4082391     1.4924576     1.3240206


optimized geometry written to: xtbopt.xyz


           -------------------------------------------------
          | TOTAL ENERGY              -17.880713112590 Eh   |
          | GRADIENT NORM               0.000174473912 Eh/α |
          | HOMO-LUMO GAP               5.124913958269 eV   |
           -------------------------------------------------

------------------------------------------------------------------------
 * finished run on 2025/05/23 at 11:05:31.282     
------------------------------------------------------------------------
 total:
 * wall-time:     0 d,  0 h,  0 min,  0.079 sec
 *  cpu-time:     0 d,  0 h,  0 min,  1.082 sec
 * ratio c/w:    13.742 speedup
 SCF:
 * wall-time:     0 d,  0 h,  0 min,  0.009 sec
 *  cpu-time:     0 d,  0 h,  0 min,  0.133 sec
 * ratio c/w:    14.542 speedup
 ANC optimizer:
 * wall-time:     0 d,  0 h,  0 min,  0.060 sec
 *  cpu-time:     0 d,  0 h,  0 min,  0.845 sec
 * ratio c/w:    14.145 speedup

