      -----------------------------------------------------------      
     |                   =====================                   |     
     |                           x T B                           |     
     |                   =====================                   |     
     |                         S. Grimme                         |     
     |          Mulliken Center for Theoretical Chemistry        |     
     |                    University of Bonn                     |     
      -----------------------------------------------------------      

   * xtb version 6.6.1 (8d0f1dd) compiled by 'conda@1efc2f54142f' on 2023-08-01

   xtb is free software: you can redistribute it and/or modify it under
   the terms of the GNU Lesser General Public License as published by
   the Free Software Foundation, either version 3 of the License, or
   (at your option) any later version.
   
   xtb is distributed in the hope that it will be useful,
   but WITHOUT ANY WARRANTY; without even the implied warranty of
   MERCHANTABILITY or FITNESS FOR A PARTICULAR PURPOSE.  See the
   GNU Lesser General Public License for more details.
   
   Cite this work as:
   * C. Bannwarth, E. Caldeweyher, S. Ehlert, A. Hansen, P. Pracht,
     J. Seibert, S. Spicher, S. Grimme, WIREs Comput. Mol. Sci., 2020, 11,
     e01493. DOI: 10.1002/wcms.1493
   
   for GFN2-xTB:
   * C. Bannwarth, S. Ehlert and S. Grimme., J. Chem. Theory Comput., 2019,
     15, 1652-1671. DOI: 10.1021/acs.jctc.8b01176
   for GFN1-xTB:
   * S. Grimme, C. Bannwarth, P. Shushkov, J. Chem. Theory Comput., 2017,
     13, 1989-2009. DOI: 10.1021/acs.jctc.7b00118
   for GFN0-xTB:
   * P. Pracht, E. Caldeweyher, S. Ehlert, S. Grimme, ChemRxiv, 2019, preprint.
     DOI: 10.26434/chemrxiv.8326202.v1
   for GFN-FF:
   * S. Spicher and S. Grimme, Angew. Chem. Int. Ed., 2020, 59, 15665-15673.
     DOI: 10.1002/anie.202004239
   
   for ALPB and GBSA implicit solvation:
   * S. Ehlert, M. Stahn, S. Spicher, S. Grimme, J. Chem. Theory Comput.,
     2021, 17, 4250-4261. DOI: 10.1021/acs.jctc.1c00471
   
   for DFT-D4:
   * E. Caldeweyher, C. Bannwarth and S. Grimme, J. Chem. Phys., 2017,
     147, 034112. DOI: 10.1063/1.4993215
   * E. Caldeweyher, S. Ehlert, A. Hansen, H. Neugebauer, S. Spicher,
     C. Bannwarth and S. Grimme, J. Chem. Phys., 2019, 150, 154122.
     DOI: 10.1063/1.5090222
   * E. Caldeweyher, J.-M. Mewes, S. Ehlert and S. Grimme, Phys. Chem. Chem. Phys.
     2020, 22, 8499-8512. DOI: 10.1039/D0CP00502A
   
   for sTDA-xTB:
   * S. Grimme and C. Bannwarth, J. Chem. Phys., 2016, 145, 054103.
     DOI: 10.1063/1.4959605
   
   in the mass-spec context:
   * V. Asgeirsson, C. Bauer and S. Grimme, Chem. Sci., 2017, 8, 4879.
     DOI: 10.1039/c7sc00601b
   * J. Koopman and S. Grimme, ACS Omega 2019, 4, 12, 15120-15133.
     DOI: 10.1021/acsomega.9b02011
   
   for metadynamics refer to:
   * S. Grimme, J. Chem. Theory Comput., 2019, 155, 2847-2862
     DOI: 10.1021/acs.jctc.9b00143
   
   for SPH calculations refer to:
   * S. Spicher and S. Grimme, J. Chem. Theory Comput., 2021, 17, 1701-1714
     DOI: 10.1021/acs.jctc.0c01306
   
   with help from (in alphabetical order)
   P. Atkinson, C. Bannwarth, F. Bohle, G. Brandenburg, E. Caldeweyher
   M. Checinski, S. Dohm, S. Ehlert, S. Ehrlich, I. Gerasimov, C. Hölzer
   A. Katbashev, J. Koopman, C. Lavigne, S. Lehtola, F. März, M. Müller,
   F. Musil, H. Neugebauer, J. Pisarek, C. Plett, P. Pracht, F. Pultar,
   J. Seibert, P. Shushkov, S. Spicher, M. Stahn, M. Steiner, T. Strunk,
   J. Stückrath, T. Rose, and J. Unsleber
   
 * started run on 2025/05/23 at 11:05:30.886     

           -------------------------------------------------
          |                Calculation Setup                |
           -------------------------------------------------

          program call               : /gpfs/fs1/home/copan/code/autode-practice/.pixi/envs/default/bin/xtb path_opt1_xtb.xyz --chrg 0 --uhf 0 --opt --input xcontrol_path_opt1_xtb
          hostname                   : beboplogin4.lcrc.anl.gov
          coordinate file            : path_opt1_xtb.xyz
          omp threads                :                     8

   ID    Z sym.   atoms
    1    6 C      1-6
    2    1 H      7-16
constraining bond 3 4 to    1.7678000 Å, actual value:    1.7172498 Å
constraining bond 5 6 to    1.7676000 Å, actual value:    1.7170679 Å

           -------------------------------------------------
          |                 G F N 2 - x T B                 |
           -------------------------------------------------

        Reference                      10.1021/acs.jctc.8b01176
      * Hamiltonian:
        H0-scaling (s, p, d)           1.850000    2.230000    2.230000
        zeta-weighting                 0.500000
      * Dispersion:
        s8                             2.700000
        a1                             0.520000
        a2                             5.000000
        s9                             5.000000
      * Repulsion:
        kExp                           1.500000    1.000000
        rExp                           1.000000
      * Coulomb:
        alpha                          2.000000
        third order                    shell-resolved
        anisotropic                    true
        a3                             3.000000
        a5                             4.000000
        cn-shift                       1.200000
        cn-exp                         4.000000
        max-rad                        5.000000


          ...................................................
          :                      SETUP                      :
          :.................................................:
          :  # basis functions                  34          :
          :  # atomic orbitals                  34          :
          :  # shells                           22          :
          :  # electrons                        34          :
          :  max. iterations                   250          :
          :  Hamiltonian                  GFN2-xTB          :
          :  restarted?                      false          :
          :  GBSA solvation                  false          :
          :  PC potential                    false          :
          :  electronic temp.          300.0000000     K    :
          :  accuracy                    1.0000000          :
          :  -> integral cutoff          0.2500000E+02      :
          :  -> integral neglect         0.1000000E-07      :
          :  -> SCF convergence          0.1000000E-05 Eh   :
          :  -> wf. convergence          0.1000000E-03 e    :
          :  Broyden damping             0.4000000          :
          ...................................................

 iter      E             dE          RMSdq      gap      omega  full diag
   1    -18.1563018 -0.181563E+02  0.321E+00    5.30       0.0  T
   2    -18.1866654 -0.303636E-01  0.183E+00    5.22       1.0  T
   3    -18.1872055 -0.540099E-03  0.685E-01    5.18       1.0  T
   4    -18.1873038 -0.982755E-04  0.120E-01    5.18       1.0  T
   5    -18.1874295 -0.125747E-03  0.517E-02    5.18       1.0  T
   6    -18.1874321 -0.258379E-05  0.169E-02    5.18       1.5  T
   7    -18.1874324 -0.291279E-06  0.201E-03    5.18      12.4  T
   8    -18.1874324  0.125012E-07  0.129E-03    5.18      19.4  T
   9    -18.1874324 -0.189282E-07  0.197E-04    5.18     127.2  T
  10    -18.1874324 -0.470024E-10  0.851E-05    5.18     293.7  T

   *** convergence criteria satisfied after 10 iterations ***

         #    Occupation            Energy/Eh            Energy/eV
      -------------------------------------------------------------
         1        2.0000           -0.6199427             -16.8695
       ...           ...                  ...                  ...
        11        2.0000           -0.4676174             -12.7245
        12        2.0000           -0.4646224             -12.6430
        13        2.0000           -0.4485268             -12.2050
        14        2.0000           -0.4348354             -11.8325
        15        2.0000           -0.4124914             -11.2245
        16        2.0000           -0.4012268             -10.9179
        17        2.0000           -0.3799638             -10.3393 (HOMO)
        18                         -0.1894618              -5.1555 (LUMO)
        19                         -0.0590279              -1.6062
        20                         -0.0374256              -1.0184
        21                          0.1181294               3.2145
        22                          0.1289677               3.5094
       ...                                ...                  ...
        34                          0.6419484              17.4683
      -------------------------------------------------------------
                  HL-Gap            0.1905019 Eh            5.1838 eV
             Fermi-level           -0.2847128 Eh           -7.7474 eV

 SCC (total)                   0 d,  0 h,  0 min,  0.009 sec
 SCC setup                      ...        0 min,  0.000 sec (  2.953%)
 Dispersion                     ...        0 min,  0.000 sec (  1.345%)
 classical contributions        ...        0 min,  0.000 sec (  1.840%)
 integral evaluation            ...        0 min,  0.000 sec (  4.814%)
 iterations                     ...        0 min,  0.007 sec ( 74.748%)
 molecular gradient             ...        0 min,  0.001 sec ( 10.904%)
 printout                       ...        0 min,  0.000 sec (  3.178%)

         :::::::::::::::::::::::::::::::::::::::::::::::::::::
         ::                     SUMMARY                     ::
         :::::::::::::::::::::::::::::::::::::::::::::::::::::
         :: total energy             -17.867725631075 Eh    ::
         :: gradient norm              0.633612564701 Eh/a0 ::
         :: HOMO-LUMO gap              5.183821327643 eV    ::
         ::.................................................::
         :: SCC energy               -18.187432399296 Eh    ::
         :: -> isotropic ES            0.002514113470 Eh    ::
         :: -> anisotropic ES          0.005706218794 Eh    ::
         :: -> anisotropic XC          0.012361298035 Eh    ::
         :: -> dispersion             -0.009896674179 Eh    ::
         :: repulsion energy           0.283195927642 Eh    ::
         :: add. restraining           0.036487851308 Eh    ::
         :: total charge               0.000000000000 e     ::
         :::::::::::::::::::::::::::::::::::::::::::::::::::::

      ----------------------------------------------------------- 
     |                   =====================                   |
     |                        A N C O P T                        |
     |                   =====================                   |
     |               Approximate Normal Coordinate               |
     |                Rational Function Optimizer                |
      ----------------------------------------------------------- 

          ...................................................
          :                      SETUP                      :
          :.................................................:
          :   optimization level            normal          :
          :   max. optcycles                   200          :
          :   ANC micro-cycles                  20          :
          :   degrees of freedom                42          :
          :.................................................:
          :   RF solver                   davidson          :
          :   write xtbopt.log                true          :
          :   linear?                        false          :
          :   energy convergence         0.5000000E-05 Eh   :
          :   grad. convergence          0.1000000E-02 Eh/α :
          :   maxmium RF displ.          1.0000000          :
          :   Hlow (freq-cutoff)         0.1000000E-01      :
          :   Hmax (freq-cutoff)         5.0000000          :
          :   S6 in model hess.         20.0000000          :
          ...................................................

generating ANC from model Hessian ...
Using Lindh-Hessian (1995)
 Shifting diagonal of input Hessian by    6.1325397169052033E-002
 Lowest  eigenvalues of input Hessian
    0.010000    0.021852    0.040510    0.000000    0.000000    0.000000
    0.000000    0.000000    0.000000    0.061535    0.076972    0.079341
    0.080991    0.089545    0.095103    0.095439    0.101427    0.104409
 Highest eigenvalues
    1.205161    1.250458    1.532178    1.980788    8.766996    8.779405


........................................................................
.............................. CYCLE    1 ..............................
........................................................................

 iter      E             dE          RMSdq      gap      omega  full diag
   1    -18.1874324 -0.181874E+02  0.688E-06    5.18       0.0  T
   2    -18.1874324 -0.181188E-12  0.394E-06    5.18    6343.9  T
   3    -18.1874324 -0.355271E-13  0.249E-06    5.18   10057.2  T
     SCC iter.                  ...        0 min,  0.002 sec
     gradient                   ...        0 min,  0.001 sec
 * total energy  :   -17.8677256 Eh     change       -0.5197620E-11 Eh
   gradient norm :     0.6336125 Eh/α   predicted     0.0000000E+00 (-100.00%)
   displ. norm   :     0.1351216 α      lambda       -0.7980924E-01
   maximum displ.:     0.1246565 α      in ANC's #41, #27, #18, ...

........................................................................
.............................. CYCLE    2 ..............................
........................................................................

 iter      E             dE          RMSdq      gap      omega  full diag
   1    -18.1757295 -0.181757E+02  0.133E-01    5.14       0.0  T
   2    -18.1757431 -0.136170E-04  0.825E-02    5.13       1.0  T
   3    -18.1757428  0.370559E-06  0.144E-02    5.13       1.7  T
   4    -18.1757434 -0.652532E-06  0.370E-03    5.13       6.8  T
   5    -18.1757436 -0.163966E-06  0.130E-03    5.13      19.2  T
   6    -18.1757436 -0.183740E-08  0.464E-04    5.13      53.8  T
   7    -18.1757436  0.266105E-09  0.195E-04    5.13     128.1  T
     SCC iter.                  ...        0 min,  0.003 sec
     gradient                   ...        0 min,  0.001 sec
 * total energy  :   -17.8822905 Eh     change       -0.1456492E-01 Eh
   gradient norm :     0.4038723 Eh/α   predicted    -0.4063318E-01 ( 178.98%)
   displ. norm   :     0.0502314 α      lambda       -0.1964753E-01
   maximum displ.:     0.0485279 α      in ANC's #41, #2, #15, ...

........................................................................
.............................. CYCLE    3 ..............................
........................................................................

 iter      E             dE          RMSdq      gap      omega  full diag
   1    -18.1780767 -0.181781E+02  0.702E-02    5.15       0.0  T
   2    -18.1780807 -0.394470E-05  0.417E-02    5.15       1.0  T
   3    -18.1780806  0.425774E-07  0.818E-03    5.15       3.1  T
   4    -18.1780807 -0.106238E-06  0.126E-03    5.15      19.8  T
   5    -18.1780808 -0.194556E-07  0.394E-04    5.15      63.5  T
   6    -18.1780808 -0.353914E-09  0.188E-04    5.15     133.0  T
     SCC iter.                  ...        0 min,  0.003 sec
     gradient                   ...        0 min,  0.001 sec
 * total energy  :   -17.8921922 Eh     change       -0.9901653E-02 Eh
   gradient norm :     0.0036891 Eh/α   predicted    -0.9848553E-02 (  -0.54%)
   displ. norm   :     0.0152511 α      lambda       -0.3169430E-04
   maximum displ.:     0.0069964 α      in ANC's #18, #15, #9, ...

........................................................................
.............................. CYCLE    4 ..............................
........................................................................

 iter      E             dE          RMSdq      gap      omega  full diag
   1    -18.1771625 -0.181772E+02  0.180E-02    5.16       0.0  T
   2    -18.1771625 -0.741584E-07  0.103E-02    5.16       2.4  T
   3    -18.1771625 -0.220742E-08  0.106E-03    5.16      23.6  T
   4    -18.1771625 -0.284505E-08  0.318E-04    5.16      78.5  T
   5    -18.1771625 -0.752582E-09  0.155E-04    5.16     161.5  T
     SCC iter.                  ...        0 min,  0.003 sec
     gradient                   ...        0 min,  0.001 sec
 * total energy  :   -17.8922140 Eh     change       -0.2180275E-04 Eh
   gradient norm :     0.0012270 Eh/α   predicted    -0.1585182E-04 ( -27.29%)
   displ. norm   :     0.0396923 α      lambda       -0.2133177E-04
   maximum displ.:     0.0301243 α      in ANC's #2, #15, #18, ...

........................................................................
.............................. CYCLE    5 ..............................
........................................................................

 iter      E             dE          RMSdq      gap      omega  full diag
   1    -18.1758786 -0.181759E+02  0.425E-02    5.16       0.0  T
   2    -18.1758788 -0.198147E-06  0.247E-02    5.16       1.0  T
   3    -18.1758788 -0.318237E-08  0.170E-03    5.16      14.7  T
   4    -18.1758788 -0.130139E-07  0.550E-04    5.16      45.5  T
   5    -18.1758788 -0.216428E-08  0.263E-04    5.16      94.9  T
     SCC iter.                  ...        0 min,  0.003 sec
     gradient                   ...        0 min,  0.001 sec
 * total energy  :   -17.8922021 Eh     change        0.1188844E-04 Eh
   gradient norm :     0.0034157 Eh/α   predicted    -0.1067439E-04 (-189.79%)
   displ. norm   :     0.0178233 α      lambda       -0.3187158E-04
   maximum displ.:     0.0158419 α      in ANC's #2, #1, #9, ...

........................................................................
.............................. CYCLE    6 ..............................
........................................................................

 iter      E             dE          RMSdq      gap      omega  full diag
   1    -18.1759105 -0.181759E+02  0.239E-02    5.16       0.0  T
   2    -18.1759105 -0.265477E-07  0.141E-02    5.16       1.8  T
   3    -18.1759104  0.409952E-07  0.186E-03    5.16      13.4  T
   4    -18.1759105 -0.494271E-07  0.333E-04    5.16      75.0  T
   5    -18.1759105 -0.794543E-09  0.176E-04    5.16     142.3  T
     SCC iter.                  ...        0 min,  0.003 sec
     gradient                   ...        0 min,  0.001 sec
 * total energy  :   -17.8922191 Eh     change       -0.1700969E-04 Eh
   gradient norm :     0.0012619 Eh/α   predicted    -0.1594079E-04 (  -6.28%)
   displ. norm   :     0.0473495 α      lambda       -0.1800374E-04
   maximum displ.:     0.0407182 α      in ANC's #1, #2, #15, ...

........................................................................
.............................. CYCLE    7 ..............................
........................................................................

 iter      E             dE          RMSdq      gap      omega  full diag
   1    -18.1770210 -0.181770E+02  0.592E-02    5.16       0.0  T
   2    -18.1770213 -0.293173E-06  0.349E-02    5.16       1.0  T
   3    -18.1770211  0.150744E-06  0.399E-03    5.16       6.3  T
   4    -18.1770213 -0.158498E-06  0.163E-03    5.16      15.3  T
   5    -18.1770213 -0.329108E-07  0.353E-04    5.16      70.7  T
   6    -18.1770213 -0.685993E-10  0.147E-04    5.16     170.5  T
     SCC iter.                  ...        0 min,  0.003 sec
     gradient                   ...        0 min,  0.001 sec
 * total energy  :   -17.8921585 Eh     change        0.6060351E-04 Eh
   gradient norm :     0.0059636 Eh/α   predicted    -0.9010721E-05 (-114.87%)
   displ. norm   :     0.0295315 α      lambda       -0.9124234E-04
   maximum displ.:     0.0280423 α      in ANC's #1, #2, #9, ...

........................................................................
.............................. CYCLE    8 ..............................
........................................................................

 iter      E             dE          RMSdq      gap      omega  full diag
   1    -18.1773200 -0.181773E+02  0.357E-02    5.16       0.0  T
   2    -18.1773201 -0.858678E-07  0.212E-02    5.16       1.2  T
   3    -18.1773200  0.808602E-07  0.274E-03    5.16       9.1  T
   4    -18.1773201 -0.899167E-07  0.842E-04    5.16      29.7  T
   5    -18.1773201 -0.837183E-08  0.237E-04    5.16     105.6  T
     SCC iter.                  ...        0 min,  0.003 sec
     gradient                   ...        0 min,  0.001 sec
 * total energy  :   -17.8922148 Eh     change       -0.5629015E-04 Eh
   gradient norm :     0.0019636 Eh/α   predicted    -0.4565977E-04 ( -18.88%)
   displ. norm   :     0.0354721 α      lambda       -0.2529154E-04
   maximum displ.:     0.0145940 α      in ANC's #1, #15, #2, ...

........................................................................
.............................. CYCLE    9 ..............................
........................................................................

 iter      E             dE          RMSdq      gap      omega  full diag
   1    -18.1753146 -0.181753E+02  0.413E-02    5.16       0.0  T
   2    -18.1753150 -0.422749E-06  0.238E-02    5.16       1.0  T
   3    -18.1753150  0.278938E-07  0.300E-03    5.16       8.3  T
   4    -18.1753150 -0.413547E-07  0.111E-03    5.16      22.6  T
   5    -18.1753151 -0.146450E-07  0.329E-04    5.16      76.1  T
   6    -18.1753151 -0.369848E-09  0.176E-04    5.16     141.7  T
     SCC iter.                  ...        0 min,  0.003 sec
     gradient                   ...        0 min,  0.001 sec
 * total energy  :   -17.8922104 Eh     change        0.4444040E-05 Eh
   gradient norm :     0.0024116 Eh/α   predicted    -0.1265378E-04 (-384.74%)
   displ. norm   :     0.0129574 α      lambda       -0.1855899E-04
   maximum displ.:     0.0065985 α      in ANC's #15, #18, #9, ...

........................................................................
.............................. CYCLE   10 ..............................
........................................................................

 iter      E             dE          RMSdq      gap      omega  full diag
   1    -18.1762098 -0.181762E+02  0.157E-02    5.16       0.0  T
   2    -18.1762099 -0.793846E-07  0.902E-03    5.16       2.8  T
   3    -18.1762099  0.537359E-08  0.134E-03    5.16      18.6  T
   4    -18.1762099 -0.912993E-08  0.361E-04    5.16      69.3  T
   5    -18.1762099 -0.151590E-08  0.125E-04    5.16     200.0  T
     SCC iter.                  ...        0 min,  0.003 sec
     gradient                   ...        0 min,  0.001 sec
 * total energy  :   -17.8922226 Eh     change       -0.1220306E-04 Eh
   gradient norm :     0.0008273 Eh/α   predicted    -0.9281287E-05 ( -23.94%)
   displ. norm   :     0.0096011 α      lambda       -0.3328862E-05
   maximum displ.:     0.0048540 α      in ANC's #1, #15, #18, ...

........................................................................
.............................. CYCLE   11 ..............................
........................................................................

 iter      E             dE          RMSdq      gap      omega  full diag
   1    -18.1767694 -0.181768E+02  0.121E-02    5.16       0.0  T
   2    -18.1767694 -0.317493E-07  0.702E-03    5.16       3.6  T
   3    -18.1767694  0.152689E-08  0.768E-04    5.16      32.6  T
   4    -18.1767694 -0.305053E-08  0.238E-04    5.16     105.2  T
     SCC iter.                  ...        0 min,  0.002 sec
     gradient                   ...        0 min,  0.001 sec
 * total energy  :   -17.8922240 Eh     change       -0.1416659E-05 Eh
   gradient norm :     0.0003819 Eh/α   predicted    -0.1663506E-05 (  17.42%)
   displ. norm   :     0.0040006 α      lambda       -0.6219811E-06
   maximum displ.:     0.0023080 α      in ANC's #2, #1, #9, ...

   *** GEOMETRY OPTIMIZATION CONVERGED AFTER 11 ITERATIONS ***

------------------------------------------------------------------------
 total energy gain   :        -0.0244984 Eh      -15.3730 kcal/mol
 total RMSD          :         0.0286604 a0        0.0152 Å
 total power (kW/mol):        -5.8473112 (step)-1089.0907 (real)
------------------------------------------------------------------------

 ANCopt (total)                0 d,  0 h,  0 min,  0.059 sec
 optimizer setup                ...        0 min,  0.000 sec (  0.291%)
 model hessian                  ...        0 min,  0.008 sec ( 14.089%)
 ANC generation                 ...        0 min,  0.000 sec (  0.769%)
 coordinate transformation      ...        0 min,  0.000 sec (  0.105%)
 single point calculation       ...        0 min,  0.045 sec ( 75.999%)
 optimization log               ...        0 min,  0.002 sec (  3.043%)
 hessian update                 ...        0 min,  0.000 sec (  0.200%)
 rational function              ...        0 min,  0.002 sec (  2.830%)

================
 final structure:
================
16
 xtb: 6.6.1 (8d0f1dd)
C            0.23821984380570        1.52391925782360       -0.31542661513048
C           -1.02271246977323        1.19406407999462       -0.08446656956161
C           -1.53377148239873       -0.16346651202429        0.22897734418771
C           -0.21087877306465       -1.23060386179815        0.67894394374283
C            0.87417221486239       -1.06778417638445       -0.33860874551809
C            1.40540116106396        0.60750766145261       -0.29642412609068
H            0.48196552248072        2.55802167685445       -0.53133689651773
H           -1.78624288814198        1.96228529113216       -0.13196891278456
H           -2.22429794395447       -0.15193008224771        1.06802370276015
H           -2.01378924361429       -0.62006640600300       -0.63429964033581
H            0.10420608912956       -0.92633983902006        1.67153565721623
H           -0.62387745605894       -2.23534830463597        0.69913864488088
H            1.75159201540384       -1.67061756224321       -0.12121101052136
H            0.52450611265412       -1.25226780398007       -1.34904573387451
H            1.98723587411004        0.71953677893021        0.61638218424304
H            2.04836142349604        0.75336980214925       -1.16023322669604

 Bond Distances (Angstroems)
 ---------------------------
C1-C2=1.3237         C1-C6=1.4841         C1-H7=1.0842         C2-C1=1.3237         C2-C3=1.4840         C2-H8=1.0842         
C3-C2=1.4840         C3-C4=1.7582         C3-H9=1.0867         C3-H10=1.0882        C4-C3=1.7582         C4-C5=1.4964         
C4-H11=1.0849        C4-H12=1.0865        C5-C4=1.4964         C5-C6=1.7580         C5-H13=1.0865        C5-H14=1.0850        
C6-C1=1.4841         C6-C5=1.7580         C6-H15=1.0883        C6-H16=1.0867        H7-C1=1.0842         H8-C2=1.0842         
H9-C3=1.0867         H10-C3=1.0882        H11-C4=1.0849        H12-C4=1.0865        H13-C5=1.0865        H14-C5=1.0850        
H15-C6=1.0883        H16-C6=1.0867        
 C  H  Rav=1.0861 sigma=0.0014  Rmin=1.0842  Rmax=1.0883    10
 C  C  Rav=1.5507 sigma=0.1578  Rmin=1.3237  Rmax=1.7582     6

 selected bond angles (degree)
 --------------------
C6-C1-C2=126.38                H7-C1-C2=119.12                H7-C1-C6=114.50                C3-C2-C1=126.36                
H8-C2-C1=119.12                H8-C2-C3=114.51                C4-C3-C2=110.50                H9-C3-C2=111.85                
H9-C3-C4=106.68                H10-C3-C2=111.60               H10-C3-C4=106.28               H10-C3-H9=109.67               
C5-C4-C3=107.79                H11-C4-C3=106.41               H11-C4-C5=112.40               H12-C4-C3=106.26               
H12-C4-C5=112.88               H12-C4-H11=110.65              C6-C5-C4=107.85                H13-C5-C4=112.90               
H13-C5-C6=106.25               H14-C5-C4=112.40               H14-C5-C6=106.36               H14-C5-H13=110.62              
C5-C6-C1=110.52                H15-C6-C1=111.57               H15-C6-C5=106.25               H16-C6-C1=111.86               
H16-C6-C5=106.72               H16-C6-H15=109.67              

 selected dihedral angles (degree)
 ---------------------------------
C3-C2-C1-C6=359.38            C3-C2-C1-H7=180.18            H8-C2-C1-C6=180.17            H8-C2-C1-H7=  0.97            
C4-C3-C2-C1= 15.05            C4-C3-C2-H8=194.29            H9-C3-C2-C1=133.73            H9-C3-C2-H8=312.97            
H10-C3-C2-C1=257.03           H10-C3-C2-H8= 76.26           C5-C4-C3-C2=312.26            C5-C4-C3-H9=190.48            
C5-C4-C3-H10= 73.50           H11-C4-C3-C2= 73.03           H11-C4-C3-H9=311.25           H11-C4-C3-H10=194.27          
H12-C4-C3-C2=191.00           H12-C4-C3-H9= 69.21           H12-C4-C3-H10=312.24          C6-C5-C4-C3= 61.06            
C6-C5-C4-H11=304.13           C6-C5-C4-H12=178.11           H13-C5-C4-C3=178.14           H13-C5-C4-H11= 61.20          
H13-C5-C4-H12=295.19          H14-C5-C4-C3=304.14           H14-C5-C4-H11=187.20          H14-C5-C4-H12= 61.18          
C5-C6-C1-C2= 14.81            C5-C6-C1-H7=194.04            H15-C6-C1-C2=256.83           H15-C6-C1-H7= 76.06           
H16-C6-C1-C2=133.56           H16-C6-C1-H7=312.79           C1-C6-C5-C4=312.46            C1-C6-C5-H13=191.15           
C1-C6-C5-H14= 73.24           H15-C6-C5-C4= 73.65           H15-C6-C5-H13=312.34          H15-C6-C5-H14=194.43          
H16-C6-C5-C4=190.63           H16-C6-C5-H13= 69.31          H16-C6-C5-H14=311.41          
           -------------------------------------------------
          |                Final Singlepoint                |
           -------------------------------------------------

          ...................................................
          :                      SETUP                      :
          :.................................................:
          :  # basis functions                  34          :
          :  # atomic orbitals                  34          :
          :  # shells                           22          :
          :  # electrons                        34          :
          :  max. iterations                   250          :
          :  Hamiltonian                  GFN2-xTB          :
          :  restarted?                      false          :
          :  GBSA solvation                  false          :
          :  PC potential                    false          :
          :  electronic temp.          300.0000000     K    :
          :  accuracy                    1.0000000          :
          :  -> integral cutoff          0.2500000E+02      :
          :  -> integral neglect         0.1000000E-07      :
          :  -> SCF convergence          0.1000000E-05 Eh   :
          :  -> wf. convergence          0.1000000E-03 e    :
          :  Broyden damping             0.4000000          :
          ...................................................

 iter      E             dE          RMSdq      gap      omega  full diag
   1    -18.1767694 -0.181768E+02  0.874E-05    5.16       0.0  T
   2    -18.1767694 -0.380851E-11  0.625E-05    5.16     399.8  T
   3    -18.1767694 -0.255937E-10  0.348E-05    5.16     718.0  T

   *** convergence criteria satisfied after 3 iterations ***

         #    Occupation            Energy/Eh            Energy/eV
      -------------------------------------------------------------
         1        2.0000           -0.6185052             -16.8304
       ...           ...                  ...                  ...
        11        2.0000           -0.4685548             -12.7500
        12        2.0000           -0.4641389             -12.6299
        13        2.0000           -0.4464710             -12.1491
        14        2.0000           -0.4362934             -11.8721
        15        2.0000           -0.4105144             -11.1707
        16        2.0000           -0.3989120             -10.8549
        17        2.0000           -0.3796213             -10.3300 (HOMO)
        18                         -0.1900395              -5.1712 (LUMO)
        19                         -0.0847117              -2.3051
        20                         -0.0625513              -1.7021
        21                          0.1176688               3.2019
        22                          0.1311996               3.5701
       ...                                ...                  ...
        34                          0.6427429              17.4899
      -------------------------------------------------------------
                  HL-Gap            0.1895818 Eh            5.1588 eV
             Fermi-level           -0.2848304 Eh           -7.7506 eV

 SCC (total)                   0 d,  0 h,  0 min,  0.004 sec
 SCC setup                      ...        0 min,  0.000 sec (  4.846%)
 Dispersion                     ...        0 min,  0.000 sec (  1.612%)
 classical contributions        ...        0 min,  0.000 sec (  0.284%)
 integral evaluation            ...        0 min,  0.000 sec (  8.710%)
 iterations                     ...        0 min,  0.002 sec ( 50.921%)
 molecular gradient             ...        0 min,  0.001 sec ( 24.757%)
 printout                       ...        0 min,  0.000 sec (  8.303%)

         :::::::::::::::::::::::::::::::::::::::::::::::::::::
         ::                     SUMMARY                     ::
         :::::::::::::::::::::::::::::::::::::::::::::::::::::
         :: total energy             -17.892223987106 Eh    ::
         :: gradient norm              0.000381342507 Eh/a0 ::
         :: HOMO-LUMO gap              5.158783258184 eV    ::
         ::.................................................::
         :: SCC energy               -18.176769428647 Eh    ::
         :: -> isotropic ES            0.002525083851 Eh    ::
         :: -> anisotropic ES          0.005984932052 Eh    ::
         :: -> anisotropic XC          0.012508787968 Eh    ::
         :: -> dispersion             -0.009867173726 Eh    ::
         :: repulsion energy           0.283207454238 Eh    ::
         :: add. restraining           0.001314348821 Eh    ::
         :: total charge               0.000000000000 e     ::
         :::::::::::::::::::::::::::::::::::::::::::::::::::::

           -------------------------------------------------
          |                Property Printout                |
           -------------------------------------------------

    * Orbital Energies and Occupations

         #    Occupation            Energy/Eh            Energy/eV
      -------------------------------------------------------------
         1        2.0000           -0.6185052             -16.8304
       ...           ...                  ...                  ...
         5        2.0000           -0.5557161             -15.1218
         6        2.0000           -0.5223949             -14.2151
         7        2.0000           -0.5127285             -13.9521
         8        2.0000           -0.4926826             -13.4066
         9        2.0000           -0.4805020             -13.0751
        10        2.0000           -0.4687318             -12.7548
        11        2.0000           -0.4685548             -12.7500
        12        2.0000           -0.4641389             -12.6299
        13        2.0000           -0.4464710             -12.1491
        14        2.0000           -0.4362934             -11.8721
        15        2.0000           -0.4105144             -11.1707
        16        2.0000           -0.3989120             -10.8549
        17        2.0000           -0.3796213             -10.3300 (HOMO)
        18                         -0.1900395              -5.1712 (LUMO)
        19                         -0.0847117              -2.3051
        20                         -0.0625513              -1.7021
        21                          0.1176688               3.2019
        22                          0.1311996               3.5701
        23                          0.1566127               4.2616
        24                          0.1583897               4.3100
        25                          0.1777978               4.8381
        26                          0.1893949               5.1537
        27                          0.2238622               6.0916
        28                          0.2303083               6.2670
       ...                                ...                  ...
        34                          0.6427429              17.4899
      -------------------------------------------------------------
                  HL-Gap            0.1895818 Eh            5.1588 eV
             Fermi-level           -0.2848304 Eh           -7.7506 eV

     #   Z          covCN         q      C6AA      α(0)
     1   6 C        2.887    -0.038    28.935     8.819
     2   6 C        2.887    -0.038    28.935     8.819
     3   6 C        3.714    -0.064    21.858     6.680
     4   6 C        3.711    -0.060    21.793     6.671
     5   6 C        3.711    -0.060    21.792     6.671
     6   6 C        3.714    -0.064    21.858     6.680
     7   1 H        0.925     0.023     2.692     2.566
     8   1 H        0.925     0.023     2.692     2.566
     9   1 H        0.925     0.035     2.515     2.480
    10   1 H        0.925     0.040     2.452     2.449
    11   1 H        0.925     0.035     2.513     2.479
    12   1 H        0.925     0.029     2.607     2.525
    13   1 H        0.925     0.029     2.607     2.525
    14   1 H        0.925     0.035     2.513     2.479
    15   1 H        0.925     0.040     2.453     2.449
    16   1 H        0.925     0.035     2.514     2.479

 Mol. C6AA /au·bohr⁶  :       2057.689184
 Mol. C8AA /au·bohr⁸  :      45629.069168
 Mol. α(0) /au        :         69.336615


Wiberg/Mayer (AO) data.
largest (>0.10) Wiberg bond orders for each atom

 ---------------------------------------------------------------------------
     #   Z sym  total        # sym  WBO       # sym  WBO       # sym  WBO
 ---------------------------------------------------------------------------
     1   6 C    3.992 --     2 C    1.920     6 C    1.042     7 H    0.962
     2   6 C    3.992 --     1 C    1.920     3 C    1.042     8 H    0.962
     3   6 C    3.995 --     2 C    1.042     9 H    0.973    10 H    0.965
                             4 C    0.963
     4   6 C    3.995 --     5 C    1.042    11 H    0.983    12 H    0.978
                             3 C    0.963
     5   6 C    3.995 --     4 C    1.042    14 H    0.983    13 H    0.978
                             6 C    0.963
     6   6 C    3.995 --     1 C    1.042    16 H    0.973    15 H    0.965
                             5 C    0.963
     7   1 H    0.999 --     1 C    0.962
     8   1 H    0.999 --     2 C    0.962
     9   1 H    0.999 --     3 C    0.973
    10   1 H    0.998 --     3 C    0.965
    11   1 H    0.999 --     4 C    0.983
    12   1 H    0.999 --     4 C    0.978
    13   1 H    0.999 --     5 C    0.978
    14   1 H    0.999 --     5 C    0.983
    15   1 H    0.998 --     6 C    0.965
    16   1 H    0.999 --     6 C    0.973
 ---------------------------------------------------------------------------

Topologies differ in total number of bonds
Writing topology from bond orders to xtbtopo.mol

molecular dipole:
                 x           y           z       tot (Debye)
 q only:        0.029      -0.101       0.015
   full:        0.031      -0.108       0.016       0.288
molecular quadrupole (traceless):
                xx          xy          yy          xz          yz          zz
 q only:        0.695       0.284      -0.293      -0.164      -0.052      -0.402
  q+dip:        1.452       0.521      -0.230      -0.031      -0.134      -1.221
   full:        0.986       0.396      -0.282      -0.019      -0.051      -0.704

           -------------------------------------------------
          |                Geometry Summary                 |
           -------------------------------------------------

      molecular mass/u    :       82.1438229
   center of mass at/Å    :       -0.0334276       0.1156837      -0.0170120
  moments of inertia/u·Å² :        0.1138883E+03   0.1178839E+03   0.2098119E+03
rotational constants/cm⁻¹ :        0.1480190E+00   0.1430020E+00   0.8034642E-01

 * 12 selected distances

     #   Z          #   Z                                           value/Å
     1   6 C        2   6 C                                       1.3236682
     4   6 C        5   6 C                                       1.4964156 (max)
     1   6 C        7   1 H                                       1.0841574 (min)
     2   6 C        8   1 H                                       1.0841583
     3   6 C        9   1 H                                       1.0867193
     3   6 C       10   1 H                                       1.0881856
     4   6 C       11   1 H                                       1.0849394
     4   6 C       12   1 H                                       1.0865023
     5   6 C       13   1 H                                       1.0865245
     5   6 C       14   1 H                                       1.0850271
     6   6 C       15   1 H                                       1.0882544
     6   6 C       16   1 H                                       1.0866646

 * 2 distinct bonds (by element types)

   Z      Z             #   av. dist./Å        max./Å        min./Å
   1 H    6 C          10     1.0861133     1.0882544     1.0841574
   6 C    6 C           2     1.4100419     1.4964156     1.3236682


optimized geometry written to: xtbopt.xyz


           -------------------------------------------------
          | TOTAL ENERGY              -17.892223987106 Eh   |
          | GRADIENT NORM               0.000381342507 Eh/α |
          | HOMO-LUMO GAP               5.158783258184 eV   |
           -------------------------------------------------

------------------------------------------------------------------------
 * finished run on 2025/05/23 at 11:05:30.971     
------------------------------------------------------------------------
 total:
 * wall-time:     0 d,  0 h,  0 min,  0.084 sec
 *  cpu-time:     0 d,  0 h,  0 min,  1.161 sec
 * ratio c/w:    13.817 speedup
 SCF:
 * wall-time:     0 d,  0 h,  0 min,  0.009 sec
 *  cpu-time:     0 d,  0 h,  0 min,  0.147 sec
 * ratio c/w:    15.747 speedup
 ANC optimizer:
 * wall-time:     0 d,  0 h,  0 min,  0.064 sec
 *  cpu-time:     0 d,  0 h,  0 min,  0.902 sec
 * ratio c/w:    14.050 speedup

