
                                 *****************
                                 * O   R   C   A *
                                 *****************

                                            #,                                       
                                            ###                                      
                                            ####                                     
                                            #####                                    
                                            ######                                   
                                           ########,                                 
                                     ,,################,,,,,                         
                               ,,#################################,,                 
                          ,,##########################################,,             
                       ,#########################################, ''#####,          
                    ,#############################################,,   '####,        
                  ,##################################################,,,,####,       
                ,###########''''           ''''###############################       
              ,#####''   ,,,,##########,,,,          '''####'''          '####       
            ,##' ,,,,###########################,,,                        '##       
           ' ,,###''''                  '''############,,,                           
         ,,##''                                '''############,,,,        ,,,,,,###''
      ,#''                                            '''#######################'''  
     '                                                          ''''####''''         
             ,#######,   #######,   ,#######,      ##                                
            ,#'     '#,  ##    ##  ,#'     '#,    #''#        ######   ,####,        
            ##       ##  ##   ,#'  ##            #'  '#       #        #'  '#        
            ##       ##  #######   ##           ,######,      #####,   #    #        
            '#,     ,#'  ##    ##  '#,     ,#' ,#      #,         ##   #,  ,#        
             '#######'   ##     ##  '#######'  #'      '#     #####' # '####'        



                  #######################################################
                  #                        -***-                        #
                  #          Department of theory and spectroscopy      #
                  #    Directorship and core code : Frank Neese         #
                  #        Max Planck Institute fuer Kohlenforschung    #
                  #                Kaiser Wilhelm Platz 1               #
                  #                 D-45470 Muelheim/Ruhr               #
                  #                      Germany                        #
                  #                                                     #
                  #                  All rights reserved                #
                  #                        -***-                        #
                  #######################################################


                         Program Version 5.0.4 -  RELEASE  -


 With contributions from (in alphabetic order):
   Daniel Aravena         : Magnetic Suceptibility
   Michael Atanasov       : Ab Initio Ligand Field Theory (pilot matlab implementation)
   Alexander A. Auer      : GIAO ZORA, VPT2 properties, NMR spectrum
   Ute Becker             : Parallelization
   Giovanni Bistoni       : ED, misc. LED, open-shell LED, HFLD
   Martin Brehm           : Molecular dynamics
   Dmytro Bykov           : SCF Hessian
   Vijay G. Chilkuri      : MRCI spin determinant printing, contributions to CSF-ICE
   Dipayan Datta          : RHF DLPNO-CCSD density
   Achintya Kumar Dutta   : EOM-CC, STEOM-CC
   Dmitry Ganyushin       : Spin-Orbit,Spin-Spin,Magnetic field MRCI
   Miquel Garcia          : C-PCM and meta-GGA Hessian, CC/C-PCM, Gaussian charge scheme
   Yang Guo               : DLPNO-NEVPT2, F12-NEVPT2, CIM, IAO-localization
   Andreas Hansen         : Spin unrestricted coupled pair/coupled cluster methods
   Benjamin Helmich-Paris : MC-RPA, TRAH-SCF, COSX integrals
   Lee Huntington         : MR-EOM, pCC
   Robert Izsak           : Overlap fitted RIJCOSX, COSX-SCS-MP3, EOM
   Marcus Kettner         : VPT2
   Christian Kollmar      : KDIIS, OOCD, Brueckner-CCSD(T), CCSD density, CASPT2, CASPT2-K
   Simone Kossmann        : Meta GGA functionals, TD-DFT gradient, OOMP2, MP2 Hessian
   Martin Krupicka        : Initial AUTO-CI
   Lucas Lang             : DCDCAS
   Marvin Lechner         : AUTO-CI (C++ implementation), FIC-MRCC
   Dagmar Lenk            : GEPOL surface, SMD
   Dimitrios Liakos       : Extrapolation schemes; Compound Job, initial MDCI parallelization
   Dimitrios Manganas     : Further ROCIS development; embedding schemes
   Dimitrios Pantazis     : SARC Basis sets
   Anastasios Papadopoulos: AUTO-CI, single reference methods and gradients
   Taras Petrenko         : DFT Hessian,TD-DFT gradient, ASA, ECA, R-Raman, ABS, FL, XAS/XES, NRVS
   Peter Pinski           : DLPNO-MP2, DLPNO-MP2 Gradient
   Christoph Reimann      : Effective Core Potentials
   Marius Retegan         : Local ZFS, SOC
   Christoph Riplinger    : Optimizer, TS searches, QM/MM, DLPNO-CCSD(T), (RO)-DLPNO pert. Triples
   Tobias Risthaus        : Range-separated hybrids, TD-DFT gradient, RPA, STAB
   Michael Roemelt        : Original ROCIS implementation
   Masaaki Saitow         : Open-shell DLPNO-CCSD energy and density
   Barbara Sandhoefer     : DKH picture change effects
   Avijit Sen             : IP-ROCIS
   Kantharuban Sivalingam : CASSCF convergence, NEVPT2, FIC-MRCI
   Bernardo de Souza      : ESD, SOC TD-DFT
   Georgi Stoychev        : AutoAux, RI-MP2 NMR, DLPNO-MP2 response
   Willem Van den Heuvel  : Paramagnetic NMR
   Boris Wezisla          : Elementary symmetry handling
   Frank Wennmohs         : Technical directorship


 We gratefully acknowledge several colleagues who have allowed us to
 interface, adapt or use parts of their codes:
   Stefan Grimme, W. Hujo, H. Kruse, P. Pracht,  : VdW corrections, initial TS optimization,
                  C. Bannwarth, S. Ehlert          DFT functionals, gCP, sTDA/sTD-DF
   Ed Valeev, F. Pavosevic, A. Kumar             : LibInt (2-el integral package), F12 methods
   Garnet Chan, S. Sharma, J. Yang, R. Olivares  : DMRG
   Ulf Ekstrom                                   : XCFun DFT Library
   Mihaly Kallay                                 : mrcc  (arbitrary order and MRCC methods)
   Jiri Pittner, Ondrej Demel                    : Mk-CCSD
   Frank Weinhold                                : gennbo (NPA and NBO analysis)
   Christopher J. Cramer and Donald G. Truhlar   : smd solvation model
   Lars Goerigk                                  : TD-DFT with DH, B97 family of functionals
   V. Asgeirsson, H. Jonsson                     : NEB implementation
   FAccTs GmbH                                   : IRC, NEB, NEB-TS, DLPNO-Multilevel, CI-OPT
                                                   MM, QMMM, 2- and 3-layer-ONIOM, Crystal-QMMM,
                                                   LR-CPCM, SF, NACMEs, symmetry and pop. for TD-DFT,
                                                   nearIR, NL-DFT gradient (VV10), updates on ESD,
                                                   ML-optimized integration grids
   S Lehtola, MJT Oliveira, MAL Marques          : LibXC Library
   Liviu Ungur et al                             : ANISO software


 Your calculation uses the libint2 library for the computation of 2-el integrals
 For citations please refer to: http://libint.valeyev.net

 Your ORCA version has been built with support for libXC version: 5.1.0
 For citations please refer to: https://tddft.org/programs/libxc/

 This ORCA versions uses:
   CBLAS   interface :  Fast vector & matrix operations
   LAPACKE interface :  Fast linear algebra routines
   SCALAPACK package :  Parallel linear algebra routines
   Shared memory     :  Shared parallel matrices
   BLAS/LAPACK       :  OpenBLAS 0.3.15  USE64BITINT DYNAMIC_ARCH NO_AFFINITY SkylakeX SINGLE_THREADED
        Core in use  :  SkylakeX
   Copyright (c) 2011-2014, The OpenBLAS Project


Your calculation utilizes the atom-pairwise dispersion correction
with the Becke-Johnson damping scheme (D3BJ)
Cite in your paper:
S.Grimme, S.Ehrlich, L.Goerigk, J Comput Chem, (2011), 32, 1456–1465 
S.Grimme, J.Antony, S.Ehrlich and H.Krieg, J.Chem.Phys., 132, (2010), 154104 
   

================================================================================

----- Orbital basis set information -----
Your calculation utilizes the basis: def2-SVP
   F. Weigend and R. Ahlrichs, Phys. Chem. Chem. Phys. 7, 3297 (2005).

----- AuxJ basis set information -----
Your calculation utilizes the auxiliary basis: def2/J
   F. Weigend, Phys. Chem. Chem. Phys. 8, 1057 (2006).

================================================================================
                                        WARNINGS
                       Please study these warnings very carefully!
================================================================================


WARNING: your system is open-shell and RHF/RKS was chosen
  ===> : WILL SWITCH to UHF/UKS


INFO   : the flag for use of the SHARK integral package has been found!

================================================================================
                                       INPUT FILE
================================================================================
NAME = 4_0_orca.inp
|  1> ! EnGrad PBE0 RIJCOSX D3BJ def2-SVP def2/J 
|  2> %output 
|  3> xyzfile=True 
|  4> end 
|  5> %scf 
|  6> maxiter 250 
|  7> end
|  8> %output
|  9> Print[P_Hirshfeld] = 1
| 10> end
| 11> % maxcore
| 12> 4000
| 13> *xyz 0 2
| 14> O   -2.27619000  -0.87761000   0.95343000 
| 15> O   -0.86951000   0.12748000   1.06381000 
| 16> C   -0.65441000   0.57250000  -0.23659000 
| 17> C    0.54120000   1.40417000   0.13698000 
| 18> C    1.61561000   0.51893000   0.21334000 
| 19> C    1.22860000  -0.71137000  -0.29489000 
| 20> C   -0.09093000  -0.62249000  -0.98514000 
| 21> H   -2.21366000  -1.13676000   1.88469000 
| 22> H   -1.52549000   1.09102000  -0.66654000 
| 23> H    0.48807000   2.42758000   0.50662000 
| 24> H    2.59272000   0.74134000   0.64561000 
| 25> H    1.86794000  -1.59697000  -0.31169000 
| 26> H    0.04212000  -0.44545000  -2.06856000 
| 27> H   -0.74609000  -1.49227000  -0.84107000 
| 28> *
| 29> 
| 30>                          ****END OF INPUT****
================================================================================

                     *******************************
                     * Energy+Gradient Calculation *
                     *******************************

---------------------------------
CARTESIAN COORDINATES (ANGSTROEM)
---------------------------------
  O     -2.276190   -0.877610    0.953430
  O     -0.869510    0.127480    1.063810
  C     -0.654410    0.572500   -0.236590
  C      0.541200    1.404170    0.136980
  C      1.615610    0.518930    0.213340
  C      1.228600   -0.711370   -0.294890
  C     -0.090930   -0.622490   -0.985140
  H     -2.213660   -1.136760    1.884690
  H     -1.525490    1.091020   -0.666540
  H      0.488070    2.427580    0.506620
  H      2.592720    0.741340    0.645610
  H      1.867940   -1.596970   -0.311690
  H      0.042120   -0.445450   -2.068560
  H     -0.746090   -1.492270   -0.841070

----------------------------
CARTESIAN COORDINATES (A.U.)
----------------------------
  NO LB      ZA    FRAG     MASS         X           Y           Z
   0 O     8.0000    0    15.999   -4.301376   -1.658443    1.801722
   1 O     8.0000    0    15.999   -1.643136    0.240902    2.010310
   2 C     6.0000    0    12.011   -1.236656    1.081868   -0.447090
   3 C     6.0000    0    12.011    1.022720    2.653497    0.258855
   4 C     6.0000    0    12.011    3.053060    0.980636    0.403154
   5 C     6.0000    0    12.011    2.321718   -1.344294   -0.557261
   6 C     6.0000    0    12.011   -0.171833   -1.176336   -1.861645
   7 H     1.0000    0     1.008   -4.183211   -2.148165    3.561548
   8 H     1.0000    0     1.008   -2.882758    2.061729   -1.259578
   9 H     1.0000    0     1.008    0.922319    4.587461    0.957373
  10 H     1.0000    0     1.008    4.899531    1.400930    1.220026
  11 H     1.0000    0     1.008    3.529895   -3.017836   -0.589009
  12 H     1.0000    0     1.008    0.079595   -0.841779   -3.909012
  13 H     1.0000    0     1.008   -1.409906   -2.819982   -1.589392

--------------------------------
INTERNAL COORDINATES (ANGSTROEM)
--------------------------------
 O      0   0   0     0.000000000000     0.00000000     0.00000000
 O      1   0   0     1.732379368066     0.00000000     0.00000000
 C      2   1   0     1.391168922310   104.57122300     0.00000000
 C      3   2   1     1.503566694863    93.87876205   178.80862859
 C      4   3   2     1.394215749194   105.97316091    80.77503682
 C      5   4   3     1.386258476259   109.16484831     9.99446672
 C      6   5   4     1.491812366821   111.32708719    10.84084242
 H      1   2   3     0.968666047201    92.38105044   175.34096104
 H      3   2   1     1.101135940427   113.16025617    56.35806242
 H      4   3   2     1.089414776199   124.41198560   274.34953132
 H      5   4   3     1.091360395607   125.60857235   192.58494026
 H      6   5   4     1.092394267469   124.17599471   182.83968991
 H      7   6   5     1.105822933611   110.88136940    93.54955671
 H      7   6   5     1.098411598127   114.81651220   217.74740518

---------------------------
INTERNAL COORDINATES (A.U.)
---------------------------
 O      0   0   0     0.000000000000     0.00000000     0.00000000
 O      1   0   0     3.273722565700     0.00000000     0.00000000
 C      2   1   0     2.628928269187   104.57122300     0.00000000
 C      3   2   1     2.841329277375    93.87876205   178.80862859
 C      4   3   2     2.634685937576   105.97316091    80.77503682
 C      5   4   3     2.619648870957   109.16484831     9.99446672
 C      6   5   4     2.819116816489   111.32708719    10.84084242
 H      1   2   3     1.830513544438    92.38105044   175.34096104
 H      3   2   1     2.080845363625   113.16025617    56.35806242
 H      4   3   2     2.058695573263   124.41198560   274.34953132
 H      5   4   3     2.062372261106   125.60857235   192.58494026
 H      6   5   4     2.064325995783   124.17599471   182.83968991
 H      7   6   5     2.089702497134   110.88136940    93.54955671
 H      7   6   5     2.075697102783   114.81651220   217.74740518

---------------------
BASIS SET INFORMATION
---------------------
There are 3 groups of distinct atoms

 Group   1 Type O   : 7s4p1d contracted to 3s2p1d pattern {511/31/1}
 Group   2 Type C   : 7s4p1d contracted to 3s2p1d pattern {511/31/1}
 Group   3 Type H   : 4s1p contracted to 2s1p pattern {31/1}

Atom   0O    basis set group =>   1
Atom   1O    basis set group =>   1
Atom   2C    basis set group =>   2
Atom   3C    basis set group =>   2
Atom   4C    basis set group =>   2
Atom   5C    basis set group =>   2
Atom   6C    basis set group =>   2
Atom   7H    basis set group =>   3
Atom   8H    basis set group =>   3
Atom   9H    basis set group =>   3
Atom  10H    basis set group =>   3
Atom  11H    basis set group =>   3
Atom  12H    basis set group =>   3
Atom  13H    basis set group =>   3
---------------------------------
AUXILIARY/J BASIS SET INFORMATION
---------------------------------
There are 3 groups of distinct atoms

 Group   1 Type O   : 12s5p4d2f1g contracted to 6s4p3d1f1g pattern {711111/2111/211/2/1}
 Group   2 Type C   : 12s5p4d2f1g contracted to 6s4p3d1f1g pattern {711111/2111/211/2/1}
 Group   3 Type H   : 5s2p1d contracted to 3s1p1d pattern {311/2/1}

Atom   0O    basis set group =>   1
Atom   1O    basis set group =>   1
Atom   2C    basis set group =>   2
Atom   3C    basis set group =>   2
Atom   4C    basis set group =>   2
Atom   5C    basis set group =>   2
Atom   6C    basis set group =>   2
Atom   7H    basis set group =>   3
Atom   8H    basis set group =>   3
Atom   9H    basis set group =>   3
Atom  10H    basis set group =>   3
Atom  11H    basis set group =>   3
Atom  12H    basis set group =>   3
Atom  13H    basis set group =>   3
------------------------------------------------------------------------------
                           ORCA GTO INTEGRAL CALCULATION
                           -- RI-GTO INTEGRALS CHOSEN --
------------------------------------------------------------------------------
------------------------------------------------------------------------------
                   ___                                                        
                  /   \      - P O W E R E D   B Y -                         
                 /     \                                                     
                 |  |  |   _    _      __       _____    __    __             
                 |  |  |  | |  | |    /  \     |  _  \  |  |  /  |          
                  \  \/   | |  | |   /    \    | | | |  |  | /  /          
                 / \  \   | |__| |  /  /\  \   | |_| |  |  |/  /          
                |  |  |   |  __  | /  /__\  \  |    /   |      \           
                |  |  |   | |  | | |   __   |  |    \   |  |\   \          
                \     /   | |  | | |  |  |  |  | |\  \  |  | \   \       
                 \___/    |_|  |_| |__|  |__|  |_| \__\ |__|  \__/        
                                                                              
                      - O R C A' S   B I G   F R I E N D -                    
                                      &                                       
                       - I N T E G R A L  F E E D E R -                       
                                                                              
 v1 FN, 2020, v2 2021                                                         
------------------------------------------------------------------------------


Reading SHARK input file 4_0_orca.SHARKINP.tmp ... ok
----------------------
SHARK INTEGRAL PACKAGE
----------------------

Number of atoms                             ...     14
Number of basis functions                   ...    133
Number of shells                            ...     63
Maximum angular momentum                    ...      2
Integral batch strategy                     ... SHARK/LIBINT Hybrid
RI-J (if used) integral strategy            ... SPLIT-RIJ (Revised 2003 algorithm where possible)
Printlevel                                  ...      1
Contraction scheme used                     ... SEGMENTED contraction
Coulomb Range Separation                    ... NOT USED
Exchange Range Separation                   ... NOT USED
Finite Nucleus Model                        ... NOT USED
Auxiliary Coulomb fitting basis             ... AVAILABLE
   # of basis functions in Aux-J            ...    420
   # of shells in Aux-J                     ...    140
   Maximum angular momentum in Aux-J        ...      4
Auxiliary J/K fitting basis                 ... NOT available
Auxiliary Correlation fitting basis         ... NOT available
Auxiliary 'external' fitting basis          ... NOT available
Integral threshold                          ...     2.500000e-11
Primitive cut-off                           ...     2.500000e-12
Primitive pair pre-selection threshold      ...     2.500000e-12

Calculating pre-screening integrals         ... done (  0.0 sec) Dimension = 63
Organizing shell pair data                  ... done (  0.0 sec)
Shell pair information
Total number of shell pairs                 ...      2016
Shell pairs after pre-screening             ...      1958
Total number of primitive shell pairs       ...      7252
Primitive shell pairs kept                  ...      5366
          la=0 lb=0:    607 shell pairs
          la=1 lb=0:    716 shell pairs
          la=1 lb=1:    225 shell pairs
          la=2 lb=0:    238 shell pairs
          la=2 lb=1:    144 shell pairs
          la=2 lb=2:     28 shell pairs

Calculating one electron integrals          ... done (  0.0 sec)
Calculating RI/J V-Matrix + Cholesky decomp.... done (  0.1 sec)
Calculating Nuclear repulsion               ... done (  0.0 sec) ENN=    301.208823312977 Eh

SHARK setup successfully completed in   0.5 seconds

Maximum memory used throughout the entire GTOINT-calculation: 17.0 MB
-------------------------------------------------------------------------------
                                 ORCA SCF
-------------------------------------------------------------------------------

------------
SCF SETTINGS
------------
Hamiltonian:
 Density Functional     Method          .... DFT(GTOs)
 Exchange Functional    Exchange        .... PBE
   PBE kappa parameter   XKappa         ....  0.804000
   PBE mue parameter    XMuePBE         ....  0.219520
 Correlation Functional Correlation     .... PBE
   PBE beta parameter  CBetaPBE         ....  0.066725
 LDA part of GGA corr.  LDAOpt          .... PW91-LDA
 Gradients option       PostSCFGGA      .... off
 Hybrid DFT is turned on
   Fraction HF Exchange ScalHFX         ....  0.250000
   Scaling of DF-GGA-X  ScalDFX         ....  0.750000
   Scaling of DF-GGA-C  ScalDFC         ....  1.000000
   Scaling of DF-LDA-C  ScalLDAC        ....  1.000000
   Perturbative correction              ....  0.000000
   Density functional embedding theory  .... OFF
   NL short-range parameter             ....  6.900000
 RI-approximation to the Coulomb term is turned on
   Number of AuxJ basis functions       .... 420
   RIJ-COSX (HFX calculated with COS-X)).... on


General Settings:
 Integral files         IntName         .... 4_0_orca
 Hartree-Fock type      HFTyp           .... UHF
 Total Charge           Charge          ....    0
 Multiplicity           Mult            ....    2
 Number of Electrons    NEL             ....   53
 Basis Dimension        Dim             ....  133
 Nuclear Repulsion      ENuc            ....    301.2088233130 Eh

Convergence Acceleration:
 DIIS                   CNVDIIS         .... on
   Start iteration      DIISMaxIt       ....    12
   Startup error        DIISStart       ....  0.200000
   # of expansion vecs  DIISMaxEq       ....     5
   Bias factor          DIISBfac        ....   1.050
   Max. coefficient     DIISMaxC        ....  10.000
 Trust-Rad. Augm. Hess. CNVTRAH         .... auto
   Auto Start mean grad. ratio tolernc. ....  1.125000
   Auto Start start iteration           ....    20
   Auto Start num. interpolation iter.  ....    10
   Max. Number of Micro iterations      ....    16
   Max. Number of Macro iterations      .... Maxiter - #DIIS iter
   Number of Davidson start vectors     ....     2
   Converg. threshold I  (grad. norm)   ....   1.000e-05
   Converg. threshold II (energy diff.) ....   1.000e-08
   Grad. Scal. Fac. for Micro threshold ....   0.100
   Minimum threshold for Micro iter.    ....   0.010
   NR start threshold (gradient norm)   ....   0.001
   Initial trust radius                 ....   0.400
   Minimum AH scaling param. (alpha)    ....   1.000
   Maximum AH scaling param. (alpha)    .... 1000.000
   Orbital update algorithm             .... Taylor
   White noise on init. David. guess    .... on
   Maximum white noise                  ....   0.010
   Quad. conv. algorithm                .... NR
 SOSCF                  CNVSOSCF        .... off
 Level Shifting         CNVShift        .... on
   Level shift para.    LevelShift      ....    0.2500
   Turn off err/grad.   ShiftErr        ....    0.0010
 Zerner damping         CNVZerner       .... off
 Static damping         CNVDamp         .... on
   Fraction old density DampFac         ....    0.7000
   Max. Damping (<1)    DampMax         ....    0.9800
   Min. Damping (>=0)   DampMin         ....    0.0000
   Turn off err/grad.   DampErr         ....    0.1000
 Fernandez-Rico         CNVRico         .... off

SCF Procedure:
 Maximum # iterations   MaxIter         ....   250
 SCF integral mode      SCFMode         .... Direct
   Integral package                     .... SHARK and LIBINT hybrid scheme
 Reset frequency        DirectResetFreq ....    20
 Integral Threshold     Thresh          ....  2.500e-11 Eh
 Primitive CutOff       TCut            ....  2.500e-12 Eh

Convergence Tolerance:
 Convergence Check Mode ConvCheckMode   .... Total+1el-Energy
 Convergence forced     ConvForced      .... 0
 Energy Change          TolE            ....  1.000e-08 Eh
 1-El. energy change                    ....  1.000e-05 Eh
 DIIS Error             TolErr          ....  5.000e-07


Diagonalization of the overlap matrix:
Smallest eigenvalue                        ... 9.006e-04
Time for diagonalization                   ...    0.021 sec
Threshold for overlap eigenvalues          ... 1.000e-08
Number of eigenvalues below threshold      ... 0
Time for construction of square roots      ...    0.001 sec
Total time needed                          ...    0.022 sec

Time for model grid setup =    0.139 sec

------------------------------
INITIAL GUESS: MODEL POTENTIAL
------------------------------
Loading Hartree-Fock densities                     ... done
Calculating cut-offs                               ... done
Initializing the effective Hamiltonian             ... done
Setting up the integral package (SHARK)            ... done
Starting the Coulomb interaction                   ... done (   0.1 sec)
Reading the grid                                   ... done
Mapping shells                                     ... done
Starting the XC term evaluation                    ... done (   0.1 sec)
  promolecular density results
     # of electrons  =     52.996507362
     EX              =    -43.844601583
     EC              =     -1.752688915
     EX+EC           =    -45.597290498
Transforming the Hamiltonian                       ... done (   0.0 sec)
Diagonalizing the Hamiltonian                      ... done (   0.0 sec)
Back transforming the eigenvectors                 ... done (   0.0 sec)
Now organizing SCF variables                       ... done
                      ------------------
                      INITIAL GUESS DONE (   0.4 sec)
                      ------------------
-------------------
DFT GRID GENERATION
-------------------

General Integration Accuracy     IntAcc      ... 4.388
Radial Grid Type                 RadialGrid  ... OptM3 with GC (2021)
Angular Grid (max. ang.)         AngularGrid ... 4 (Lebedev-302)
Angular grid pruning method      GridPruning ... 4 (adaptive)
Weight generation scheme         WeightScheme... Becke
Basis function cutoff            BFCut       ... 1.0000e-11
Integration weight cutoff        WCut        ... 1.0000e-14
Angular grids for H and He will be reduced by one unit
Partially contracted basis set               ... off
Rotationally invariant grid construction     ... off

Total number of grid points                  ...    64852
Total number of batches                      ...     1022
Average number of points per batch           ...       63
Average number of grid points per atom       ...     4632
Time for grid setup =    0.494 sec

--------------------
COSX GRID GENERATION
--------------------

GRIDX 1
-------
General Integration Accuracy     IntAcc      ... 3.816
Radial Grid Type                 RadialGrid  ... OptM3 with GC (2021)
Angular Grid (max. ang.)         AngularGrid ... 1 (Lebedev-50)
Angular grid pruning method      GridPruning ... 4 (adaptive)
Weight generation scheme         WeightScheme... Becke
Basis function cutoff            BFCut       ... 1.0000e-11
Integration weight cutoff        WCut        ... 1.0000e-14
Angular grids for H and He will be reduced by one unit
Partially contracted basis set               ... on
Rotationally invariant grid construction     ... off

Total number of grid points                  ...     8294
Total number of batches                      ...      136
Average number of points per batch           ...       60
Average number of grid points per atom       ...      592
UseSFitting                                  ... on

GRIDX 2
-------
General Integration Accuracy     IntAcc      ... 4.020
Radial Grid Type                 RadialGrid  ... OptM3 with GC (2021)
Angular Grid (max. ang.)         AngularGrid ... 2 (Lebedev-110)
Angular grid pruning method      GridPruning ... 4 (adaptive)
Weight generation scheme         WeightScheme... Becke
Basis function cutoff            BFCut       ... 1.0000e-11
Integration weight cutoff        WCut        ... 1.0000e-14
Angular grids for H and He will be reduced by one unit
Partially contracted basis set               ... on
Rotationally invariant grid construction     ... off

Total number of grid points                  ...    18046
Total number of batches                      ...      288
Average number of points per batch           ...       62
Average number of grid points per atom       ...     1289
UseSFitting                                  ... on

GRIDX 3
-------
General Integration Accuracy     IntAcc      ... 4.338
Radial Grid Type                 RadialGrid  ... OptM3 with GC (2021)
Angular Grid (max. ang.)         AngularGrid ... 3 (Lebedev-194)
Angular grid pruning method      GridPruning ... 4 (adaptive)
Weight generation scheme         WeightScheme... Becke
Basis function cutoff            BFCut       ... 1.0000e-11
Integration weight cutoff        WCut        ... 1.0000e-14
Angular grids for H and He will be reduced by one unit
Partially contracted basis set               ... on
Rotationally invariant grid construction     ... off

Total number of grid points                  ...    39623
Total number of batches                      ...      626
Average number of points per batch           ...       63
Average number of grid points per atom       ...     2830
UseSFitting                                  ... on

Time for X-Grid setup             =    0.569 sec

--------------
SCF ITERATIONS
--------------
ITER       Energy         Delta-E        Max-DP      RMS-DP      [F,P]     Damp
               ***  Starting incremental Fock matrix formation  ***
  0   -344.2132213886   0.000000000000 0.03373500  0.00113918  0.1070920 0.7000
  1   -344.2721888803  -0.058967491720 0.02034859  0.00079838  0.0432245 0.7000
                               ***Turning on DIIS***
  2   -344.2973130769  -0.025124196613 0.03537834  0.00144098  0.0166768 0.0000
  3   -344.3382880947  -0.040975017784 0.01546157  0.00062002  0.0261300 0.0000
  4   -344.3472262798  -0.008938185083 0.00748053  0.00023767  0.0065111 0.0000
  5   -344.3480580958  -0.000831816020 0.00454380  0.00014062  0.0060716 0.0000
  6   -344.3486434976  -0.000585401778 0.00403919  0.00014144  0.0026950 0.0000
  7   -344.3490086228  -0.000365125151 0.00297091  0.00008298  0.0017247 0.0000
  8   -344.3491854143  -0.000176791565 0.00242107  0.00008513  0.0012452 0.0000
  9   -344.3493144127  -0.000128998363 0.00327486  0.00011278  0.0008949 0.0000
               *** Restarting incremental Fock matrix formation ***
                                   *** Resetting DIIS ***
 10   -344.3494187769  -0.000104364176 0.00156925  0.00004188  0.0007246 0.0000
 11   -344.3494318416  -0.000013064787 0.00076614  0.00002232  0.0009200 0.0000
 12   -344.3494430164  -0.000011174707 0.00117106  0.00001995  0.0006992 0.0000
 13   -344.3494517388  -0.000008722444 0.00172601  0.00003154  0.0008289 0.0000
 14   -344.3494646117  -0.000012872927 0.00227487  0.00004535  0.0004651 0.0000
 15   -344.3494756408  -0.000011029052 0.00099466  0.00002034  0.0002235 0.0000
 16   -344.3494779617  -0.000002320890 0.00049804  0.00000993  0.0000971 0.0000
 17   -344.3494785661  -0.000000604414 0.00030749  0.00000616  0.0000617 0.0000
 18   -344.3494787389  -0.000000172853 0.00020385  0.00000333  0.0000281 0.0000
 19   -344.3494787851  -0.000000046118 0.00009465  0.00000141  0.0000349 0.0000
 20   -344.3494787982  -0.000000013176 0.00004546  0.00000085  0.0000148 0.0000
 21   -344.3494788038  -0.000000005555 0.00002980  0.00000068  0.0000108 0.0000
 22   -344.3494788132  -0.000000009396 0.00003512  0.00000068  0.0000080 0.0000
 23   -344.3494788141  -0.000000000971 0.00002905  0.00000058  0.0000056 0.0000
 24   -344.3494788162  -0.000000002056 0.00001755  0.00000035  0.0000041 0.0000
 25   -344.3494788191  -0.000000002874 0.00001800  0.00000041  0.0000036 0.0000
 26   -344.3494788195  -0.000000000420 0.00001612  0.00000031  0.0000031 0.0000
 27   -344.3494788195   0.000000000026 0.00000965  0.00000020  0.0000028 0.0000
 28   -344.3494788225  -0.000000003057 0.00000377  0.00000007  0.0000026 0.0000
 29   -344.3494788259  -0.000000003341 0.00000299  0.00000008  0.0000014 0.0000
               *** Restarting incremental Fock matrix formation ***
                                   *** Resetting DIIS ***
 30   -344.3494788202   0.000000005666 0.00000299  0.00000005  0.0000012 0.0000
                 **** Energy Check signals convergence ****

               *****************************************************
               *                     SUCCESS                       *
               *           SCF CONVERGED AFTER  31 CYCLES          *
               *****************************************************

Old exchange energy                            =    -11.157632188 Eh
New exchange energy                            =    -11.157654871 Eh
Exchange energy change after final integration =     -0.000022683 Eh
Total energy after final integration           =   -344.349501509 Eh
Final COS-X integration done in                =     5.255 sec

----------------
TOTAL SCF ENERGY
----------------

Total Energy       :         -344.34950151 Eh           -9370.22631 eV

Components:
Nuclear Repulsion  :          301.20882331 Eh            8196.30877 eV
Electronic Energy  :         -645.55832482 Eh          -17566.53508 eV
One Electron Energy:        -1065.81798263 Eh          -29002.38176 eV
Two Electron Energy:          420.25965781 Eh           11435.84668 eV
Max COSX asymmetry :            0.00000135 Eh               0.00004 eV

Virial components:
Potential Energy   :         -685.73749046 Eh          -18659.86576 eV
Kinetic Energy     :          341.38798895 Eh            9289.63946 eV
Virial Ratio       :            2.00867492


DFT components:
N(Alpha)           :       27.000019302308 electrons
N(Beta)            :       26.000016363734 electrons
N(Total)           :       53.000035666042 electrons
E(X)               :      -33.432690161312 Eh       
E(C)               :       -1.765570321161 Eh       
E(XC)              :      -35.198260482474 Eh       
DFET-embed. en.    :        0.000000000000 Eh       

---------------
SCF CONVERGENCE
---------------

  Last Energy change         ...   -6.2767e-09  Tolerance :   1.0000e-08
  Last MAX-Density change    ...    0.0000e+00  Tolerance :   1.0000e-07
  Last RMS-Density change    ...    0.0000e+00  Tolerance :   5.0000e-09
  Last DIIS Error            ...    1.1603e-06  Tolerance :   5.0000e-07

             **** THE GBW FILE WAS UPDATED (4_0_orca.gbw) ****
             **** DENSITY 4_0_orca.scfp WAS UPDATED ****
             **** ENERGY FILE WAS UPDATED (4_0_orca.en.tmp) ****
----------------------
UHF SPIN CONTAMINATION
----------------------

Warning: in a DFT calculation there is little theoretical justification to 
         calculate <S**2> as in Hartree-Fock theory. We will do it anyways
         but you should keep in mind that the values have only limited relevance

Expectation value of <S**2>     :     0.816861
Ideal value S*(S+1) for S=0.5   :     0.750000
Deviation                       :     0.066861

             **** THE GBW FILE WAS UPDATED (4_0_orca.gbw) ****
             **** DENSITY 4_0_orca.scfp WAS UPDATED ****
----------------
ORBITAL ENERGIES
----------------
                 SPIN UP ORBITALS
  NO   OCC          E(Eh)            E(eV) 
   0   1.0000     -19.256821      -524.0048 
   1   1.0000     -19.235122      -523.4143 
   2   1.0000     -10.287478      -279.9365 
   3   1.0000     -10.259854      -279.1848 
   4   1.0000     -10.254060      -279.0271 
   5   1.0000     -10.245830      -278.8032 
   6   1.0000     -10.233237      -278.4605 
   7   1.0000      -1.059901       -28.8414 
   8   1.0000      -0.956845       -26.0371 
   9   1.0000      -0.861720       -23.4486 
  10   1.0000      -0.740288       -20.1443 
  11   1.0000      -0.706441       -19.2232 
  12   1.0000      -0.580707       -15.8018 
  13   1.0000      -0.560842       -15.2613 
  14   1.0000      -0.547094       -14.8872 
  15   1.0000      -0.489281       -13.3140 
  16   1.0000      -0.473639       -12.8884 
  17   1.0000      -0.439544       -11.9606 
  18   1.0000      -0.411235       -11.1903 
  19   1.0000      -0.402516       -10.9530 
  20   1.0000      -0.400227       -10.8907 
  21   1.0000      -0.381291       -10.3754 
  22   1.0000      -0.353153        -9.6098 
  23   1.0000      -0.330071        -8.9817 
  24   1.0000      -0.318846        -8.6762 
  25   1.0000      -0.267327        -7.2743 
  26   1.0000      -0.209186        -5.6922 
  27   0.0000      -0.065195        -1.7740 
  28   0.0000       0.033018         0.8985 
  29   0.0000       0.080296         2.1850 
  30   0.0000       0.098537         2.6813 
  31   0.0000       0.116598         3.1728 
  32   0.0000       0.123650         3.3647 
  33   0.0000       0.136627         3.7178 
  34   0.0000       0.142931         3.8894 
  35   0.0000       0.156885         4.2691 
  36   0.0000       0.202353         5.5063 
  37   0.0000       0.212610         5.7854 
  38   0.0000       0.228969         6.2306 
  39   0.0000       0.271350         7.3838 
  40   0.0000       0.337276         9.1777 
  41   0.0000       0.375909        10.2290 
  42   0.0000       0.392249        10.6736 
  43   0.0000       0.437245        11.8980 
  44   0.0000       0.465202        12.6588 
  45   0.0000       0.484009        13.1706 
  46   0.0000       0.502390        13.6707 
  47   0.0000       0.529110        14.3978 
  48   0.0000       0.550099        14.9689 
  49   0.0000       0.570623        15.5274 
  50   0.0000       0.589939        16.0531 
  51   0.0000       0.608364        16.5544 
  52   0.0000       0.617344        16.7988 
  53   0.0000       0.629917        17.1409 
  54   0.0000       0.641163        17.4469 
  55   0.0000       0.654329        17.8052 
  56   0.0000       0.673588        18.3293 
  57   0.0000       0.693552        18.8725 
  58   0.0000       0.699255        19.0277 
  59   0.0000       0.711691        19.3661 
  60   0.0000       0.729682        19.8556 
  61   0.0000       0.740763        20.1572 
  62   0.0000       0.791390        21.5348 
  63   0.0000       0.793457        21.5911 
  64   0.0000       0.821043        22.3417 
  65   0.0000       0.870198        23.6793 
  66   0.0000       0.934293        25.4234 
  67   0.0000       0.983429        26.7605 
  68   0.0000       1.020787        27.7770 
  69   0.0000       1.042981        28.3810 
  70   0.0000       1.068224        29.0679 
  71   0.0000       1.111455        30.2442 
  72   0.0000       1.153824        31.3971 
  73   0.0000       1.190535        32.3961 
  74   0.0000       1.199191        32.6316 
  75   0.0000       1.265714        34.4418 
  76   0.0000       1.275083        34.6968 
  77   0.0000       1.322665        35.9916 
  78   0.0000       1.374036        37.3894 
  79   0.0000       1.451187        39.4888 
  80   0.0000       1.479615        40.2624 
  81   0.0000       1.554340        42.2957 
  82   0.0000       1.574360        42.8405 
  83   0.0000       1.600761        43.5589 
  84   0.0000       1.645600        44.7791 
  85   0.0000       1.654781        45.0289 
  86   0.0000       1.667768        45.3823 
  87   0.0000       1.680280        45.7227 
  88   0.0000       1.701964        46.3128 
  89   0.0000       1.746781        47.5323 
  90   0.0000       1.784462        48.5577 
  91   0.0000       1.811986        49.3066 
  92   0.0000       1.842856        50.1467 
  93   0.0000       1.855005        50.4773 
  94   0.0000       1.872956        50.9657 
  95   0.0000       1.895747        51.5859 
  96   0.0000       1.907135        51.8958 
  97   0.0000       1.937031        52.7093 
  98   0.0000       1.964922        53.4682 
  99   0.0000       2.040414        55.5225 
 100   0.0000       2.044039        55.6211 
 101   0.0000       2.060702        56.0745 
 102   0.0000       2.090100        56.8745 
 103   0.0000       2.105114        57.2831 
 104   0.0000       2.223991        60.5179 
 105   0.0000       2.241299        60.9888 
 106   0.0000       2.281905        62.0938 
 107   0.0000       2.293776        62.4168 
 108   0.0000       2.368874        64.4603 
 109   0.0000       2.410872        65.6032 
 110   0.0000       2.451521        66.7093 
 111   0.0000       2.480546        67.4991 
 112   0.0000       2.505444        68.1766 
 113   0.0000       2.559852        69.6571 
 114   0.0000       2.585385        70.3519 
 115   0.0000       2.650507        72.1240 
 116   0.0000       2.694105        73.3103 
 117   0.0000       2.730428        74.2987 
 118   0.0000       2.732999        74.3687 
 119   0.0000       2.768035        75.3221 
 120   0.0000       2.818461        76.6942 
 121   0.0000       2.850033        77.5533 
 122   0.0000       2.919239        79.4365 
 123   0.0000       2.945828        80.1601 
 124   0.0000       2.998721        81.5994 
 125   0.0000       3.047910        82.9378 
 126   0.0000       3.077088        83.7318 
 127   0.0000       3.090407        84.0942 
 128   0.0000       3.149672        85.7069 
 129   0.0000       3.265523        88.8594 
 130   0.0000       3.424578        93.1875 
 131   0.0000       3.464673        94.2786 
 132   0.0000       3.744151       101.8835 

                 SPIN DOWN ORBITALS
  NO   OCC          E(Eh)            E(eV) 
   0   1.0000     -19.258787      -524.0582 
   1   1.0000     -19.228358      -523.2302 
   2   1.0000     -10.287852      -279.9467 
   3   1.0000     -10.251430      -278.9556 
   4   1.0000     -10.249694      -278.9083 
   5   1.0000     -10.244196      -278.7588 
   6   1.0000     -10.233812      -278.4762 
   7   1.0000      -1.058666       -28.8078 
   8   1.0000      -0.943371       -25.6704 
   9   1.0000      -0.853673       -23.2296 
  10   1.0000      -0.734629       -19.9903 
  11   1.0000      -0.693943       -18.8832 
  12   1.0000      -0.574776       -15.6404 
  13   1.0000      -0.557288       -15.1646 
  14   1.0000      -0.540381       -14.7045 
  15   1.0000      -0.482700       -13.1349 
  16   1.0000      -0.470147       -12.7933 
  17   1.0000      -0.433960       -11.8087 
  18   1.0000      -0.407256       -11.0820 
  19   1.0000      -0.398489       -10.8435 
  20   1.0000      -0.395736       -10.7685 
  21   1.0000      -0.377524       -10.2730 
  22   1.0000      -0.341377        -9.2893 
  23   1.0000      -0.323065        -8.7911 
  24   1.0000      -0.297885        -8.1059 
  25   1.0000      -0.263601        -7.1729 
  26   0.0000      -0.087998        -2.3945 
  27   0.0000      -0.038479        -1.0471 
  28   0.0000       0.057513         1.5650 
  29   0.0000       0.082508         2.2452 
  30   0.0000       0.101550         2.7633 
  31   0.0000       0.118922         3.2360 
  32   0.0000       0.126864         3.4521 
  33   0.0000       0.139926         3.8076 
  34   0.0000       0.146079         3.9750 
  35   0.0000       0.159797         4.3483 
  36   0.0000       0.206938         5.6311 
  37   0.0000       0.215325         5.8593 
  38   0.0000       0.232263         6.3202 
  39   0.0000       0.280011         7.6195 
  40   0.0000       0.342067         9.3081 
  41   0.0000       0.382480        10.4078 
  42   0.0000       0.393259        10.7011 
  43   0.0000       0.448730        12.2106 
  44   0.0000       0.471682        12.8351 
  45   0.0000       0.493725        13.4349 
  46   0.0000       0.514663        14.0047 
  47   0.0000       0.542988        14.7755 
  48   0.0000       0.552979        15.0473 
  49   0.0000       0.590037        16.0557 
  50   0.0000       0.598294        16.2804 
  51   0.0000       0.613320        16.6893 
  52   0.0000       0.628157        17.0930 
  53   0.0000       0.636012        17.3068 
  54   0.0000       0.648804        17.6549 
  55   0.0000       0.662851        18.0371 
  56   0.0000       0.676848        18.4180 
  57   0.0000       0.695076        18.9140 
  58   0.0000       0.703789        19.1511 
  59   0.0000       0.714045        19.4301 
  60   0.0000       0.734330        19.9821 
  61   0.0000       0.743559        20.2333 
  62   0.0000       0.796048        21.6616 
  63   0.0000       0.798723        21.7344 
  64   0.0000       0.825613        22.4661 
  65   0.0000       0.872462        23.7409 
  66   0.0000       0.940749        25.5991 
  67   0.0000       0.991080        26.9687 
  68   0.0000       1.031476        28.0679 
  69   0.0000       1.048034        28.5185 
  70   0.0000       1.072374        29.1808 
  71   0.0000       1.114059        30.3151 
  72   0.0000       1.157989        31.5105 
  73   0.0000       1.193377        32.4734 
  74   0.0000       1.205650        32.8074 
  75   0.0000       1.270094        34.5610 
  76   0.0000       1.287962        35.0472 
  77   0.0000       1.328438        36.1486 
  78   0.0000       1.378268        37.5046 
  79   0.0000       1.452308        39.5193 
  80   0.0000       1.481136        40.3038 
  81   0.0000       1.561883        42.5010 
  82   0.0000       1.582087        43.0508 
  83   0.0000       1.602532        43.6071 
  84   0.0000       1.647791        44.8387 
  85   0.0000       1.658526        45.1308 
  86   0.0000       1.673404        45.5356 
  87   0.0000       1.684499        45.8375 
  88   0.0000       1.703164        46.3454 
  89   0.0000       1.750601        47.6363 
  90   0.0000       1.788102        48.6567 
  91   0.0000       1.814577        49.3771 
  92   0.0000       1.853256        50.4297 
  93   0.0000       1.859988        50.6128 
  94   0.0000       1.879893        51.1545 
  95   0.0000       1.904712        51.8298 
  96   0.0000       1.918624        52.2084 
  97   0.0000       1.949167        53.0395 
  98   0.0000       1.971206        53.6392 
  99   0.0000       2.048750        55.7493 
 100   0.0000       2.051121        55.8138 
 101   0.0000       2.064660        56.1823 
 102   0.0000       2.090956        56.8978 
 103   0.0000       2.108435        57.3734 
 104   0.0000       2.229498        60.6677 
 105   0.0000       2.247402        61.1549 
 106   0.0000       2.286745        62.2255 
 107   0.0000       2.309741        62.8513 
 108   0.0000       2.384990        64.8989 
 109   0.0000       2.419769        65.8453 
 110   0.0000       2.458617        66.9024 
 111   0.0000       2.487878        67.6986 
 112   0.0000       2.514916        68.4343 
 113   0.0000       2.563298        69.7509 
 114   0.0000       2.590777        70.4986 
 115   0.0000       2.657164        72.3051 
 116   0.0000       2.697248        73.3958 
 117   0.0000       2.733989        74.3956 
 118   0.0000       2.738919        74.5298 
 119   0.0000       2.769994        75.3754 
 120   0.0000       2.821680        76.7818 
 121   0.0000       2.852825        77.6293 
 122   0.0000       2.926246        79.6272 
 123   0.0000       2.949703        80.2655 
 124   0.0000       3.001020        81.6619 
 125   0.0000       3.054568        83.1190 
 126   0.0000       3.080079        83.8132 
 127   0.0000       3.093662        84.1828 
 128   0.0000       3.151814        85.7652 
 129   0.0000       3.270237        88.9877 
 130   0.0000       3.427504        93.2671 
 131   0.0000       3.462225        94.2119 
 132   0.0000       3.749887       102.0396 

                    ********************************
                    * MULLIKEN POPULATION ANALYSIS *
                    ********************************

--------------------------------------------
MULLIKEN ATOMIC CHARGES AND SPIN POPULATIONS
--------------------------------------------
   0 O :   -0.238353    0.238274
   1 O :   -0.260743   -0.101363
   2 C :    0.043398   -0.036680
   3 C :   -0.024161    0.606106
   4 C :    0.003118   -0.302244
   5 C :   -0.076872    0.668826
   6 C :    0.080840   -0.054774
   7 H :    0.185438   -0.005162
   8 H :    0.042542    0.002989
   9 H :    0.050376   -0.028926
  10 H :    0.033682    0.010934
  11 H :    0.035256   -0.032695
  12 H :    0.058573    0.029551
  13 H :    0.066905    0.005163
Sum of atomic charges         :    0.0000000
Sum of atomic spin populations:    1.0000000

-----------------------------------------------------
MULLIKEN REDUCED ORBITAL CHARGES AND SPIN POPULATIONS
-----------------------------------------------------
CHARGE
  0 O s       :     3.836662  s :     3.836662
      pz      :     1.379808  p :     4.392669
      px      :     1.408494
      py      :     1.604367
      dz2     :     0.004465  d :     0.009021
      dxz     :     0.000939
      dyz     :     0.001354
      dx2y2   :     0.000744
      dxy     :     0.001520
  1 O s       :     3.894691  s :     3.894691
      pz      :     1.435195  p :     4.351448
      px      :     1.364369
      py      :     1.551885
      dz2     :     0.005549  d :     0.014603
      dxz     :     0.002408
      dyz     :     0.002960
      dx2y2   :     0.001038
      dxy     :     0.002648
  2 C s       :     3.151920  s :     3.151920
      pz      :     0.767676  p :     2.727679
      px      :     0.990016
      py      :     0.969987
      dz2     :     0.020244  d :     0.077004
      dxz     :     0.016309
      dyz     :     0.020146
      dx2y2   :     0.007512
      dxy     :     0.012792
  3 C s       :     3.222734  s :     3.222734
      pz      :     0.987813  p :     2.768462
      px      :     0.919108
      py      :     0.861541
      dz2     :     0.002585  d :     0.032964
      dxz     :     0.004676
      dyz     :     0.005398
      dx2y2   :     0.009818
      dxy     :     0.010487
  4 C s       :     3.172334  s :     3.172334
      pz      :     0.960683  p :     2.787264
      px      :     0.873096
      py      :     0.953485
      dz2     :     0.003626  d :     0.037285
      dxz     :     0.005517
      dyz     :     0.006829
      dx2y2   :     0.010645
      dxy     :     0.010666
  5 C s       :     3.235227  s :     3.235227
      pz      :     0.922471  p :     2.806163
      px      :     0.967513
      py      :     0.916179
      dz2     :     0.005479  d :     0.035482
      dxz     :     0.004817
      dyz     :     0.005216
      dx2y2   :     0.008590
      dxy     :     0.011381
  6 C s       :     2.982509  s :     2.982509
      pz      :     0.946883  p :     2.902159
      px      :     0.941389
      py      :     1.013887
      dz2     :     0.008881  d :     0.034491
      dxz     :     0.006236
      dyz     :     0.004504
      dx2y2   :     0.006740
      dxy     :     0.008131
  7 H s       :     0.747552  s :     0.747552
      pz      :     0.034841  p :     0.067010
      px      :     0.014079
      py      :     0.018090
  8 H s       :     0.936737  s :     0.936737
      pz      :     0.004147  p :     0.020720
      px      :     0.010859
      py      :     0.005715
  9 H s       :     0.925648  s :     0.925648
      pz      :     0.006450  p :     0.023976
      px      :     0.003136
      py      :     0.014390
 10 H s       :     0.942751  s :     0.942751
      pz      :     0.006318  p :     0.023567
      px      :     0.013409
      py      :     0.003840
 11 H s       :     0.941072  s :     0.941072
      pz      :     0.004540  p :     0.023672
      px      :     0.007619
      py      :     0.011513
 12 H s       :     0.918433  s :     0.918433
      pz      :     0.014036  p :     0.022994
      px      :     0.004529
      py      :     0.004430
 13 H s       :     0.909257  s :     0.909257
      pz      :     0.004704  p :     0.023838
      px      :     0.008620
      py      :     0.010513

SPIN
  0 O s       :     0.000992  s :     0.000992
      pz      :     0.006485  p :     0.237298
      px      :     0.116543
      py      :     0.114270
      dz2     :    -0.000012  d :    -0.000016
      dxz     :     0.000057
      dyz     :     0.000011
      dx2y2   :     0.000002
      dxy     :    -0.000073
  1 O s       :     0.005702  s :     0.005702
      pz      :     0.005998  p :    -0.107871
      px      :    -0.030883
      py      :    -0.082987
      dz2     :     0.000194  d :     0.000806
      dxz     :     0.000018
      dyz     :     0.000011
      dx2y2   :     0.000008
      dxy     :     0.000575
  2 C s       :    -0.011419  s :    -0.011419
      pz      :    -0.005314  p :    -0.028368
      px      :    -0.016519
      py      :    -0.006534
      dz2     :    -0.000643  d :     0.003107
      dxz     :     0.002483
      dyz     :     0.001455
      dx2y2   :     0.000044
      dxy     :    -0.000232
  3 C s       :     0.083959  s :     0.083959
      pz      :     0.431741  p :     0.524880
      px      :     0.036301
      py      :     0.056838
      dz2     :    -0.000951  d :    -0.002732
      dxz     :    -0.000570
      dyz     :    -0.000865
      dx2y2   :    -0.000198
      dxy     :    -0.000150
  4 C s       :    -0.054146  s :    -0.054146
      pz      :    -0.164738  p :    -0.255736
      px      :    -0.038714
      py      :    -0.052284
      dz2     :     0.000964  d :     0.007639
      dxz     :     0.001182
      dyz     :     0.004278
      dx2y2   :     0.000532
      dxy     :     0.000683
  5 C s       :     0.087468  s :     0.087468
      pz      :     0.412586  p :     0.583632
      px      :     0.108588
      py      :     0.062459
      dz2     :    -0.000617  d :    -0.002274
      dxz     :    -0.000594
      dyz     :    -0.000745
      dx2y2   :    -0.000142
      dxy     :    -0.000175
  6 C s       :    -0.016347  s :    -0.016347
      pz      :    -0.013000  p :    -0.041911
      px      :    -0.022951
      py      :    -0.005959
      dz2     :     0.002145  d :     0.003483
      dxz     :     0.000609
      dyz     :     0.000308
      dx2y2   :     0.000302
      dxy     :     0.000118
  7 H s       :    -0.006997  s :    -0.006997
      pz      :     0.000043  p :     0.001835
      px      :     0.000887
      py      :     0.000905
  8 H s       :     0.003040  s :     0.003040
      pz      :    -0.000025  p :    -0.000052
      px      :    -0.000061
      py      :     0.000034
  9 H s       :    -0.031930  s :    -0.031930
      pz      :     0.002442  p :     0.003005
      px      :    -0.000008
      py      :     0.000571
 10 H s       :     0.011991  s :     0.011991
      pz      :    -0.000783  p :    -0.001056
      px      :    -0.000175
      py      :    -0.000098
 11 H s       :    -0.036161  s :    -0.036161
      pz      :     0.002459  p :     0.003467
      px      :     0.000559
      py      :     0.000449
 12 H s       :     0.029745  s :     0.029745
      pz      :    -0.000258  p :    -0.000194
      px      :     0.000044
      py      :     0.000020
 13 H s       :     0.005214  s :     0.005214
      pz      :    -0.000057  p :    -0.000051
      px      :    -0.000066
      py      :     0.000073


                     *******************************
                     * LOEWDIN POPULATION ANALYSIS *
                     *******************************

-------------------------------------------
LOEWDIN ATOMIC CHARGES AND SPIN POPULATIONS
-------------------------------------------
   0 O :   -0.132384    0.217717
   1 O :   -0.089291   -0.078616
   2 C :    0.037617    0.002247
   3 C :   -0.005211    0.469040
   4 C :   -0.034330   -0.165452
   5 C :    0.017879    0.531459
   6 C :   -0.054546   -0.007752
   7 H :    0.065510    0.002129
   8 H :    0.019918    0.002323
   9 H :    0.031972   -0.000825
  10 H :    0.035457    0.000825
  11 H :    0.025786   -0.001324
  12 H :    0.040714    0.023344
  13 H :    0.040908    0.004886

----------------------------------------------------
LOEWDIN REDUCED ORBITAL CHARGES AND SPIN POPULATIONS
----------------------------------------------------
CHARGE
  0 O s       :     3.641320  s :     3.641320
      pz      :     1.474192  p :     4.475529
      px      :     1.407366
      py      :     1.593971
      dz2     :     0.009007  d :     0.015535
      dxz     :     0.000807
      dyz     :     0.002187
      dx2y2   :     0.001160
      dxy     :     0.002374
  1 O s       :     3.650157  s :     3.650157
      pz      :     1.502422  p :     4.414577
      px      :     1.358960
      py      :     1.553195
      dz2     :     0.009291  d :     0.024557
      dxz     :     0.003814
      dyz     :     0.004989
      dx2y2   :     0.001751
      dxy     :     0.004712
  2 C s       :     2.856290  s :     2.856290
      pz      :     0.887309  p :     2.931871
      px      :     1.032084
      py      :     1.012478
      dz2     :     0.044374  d :     0.174221
      dxz     :     0.035521
      dyz     :     0.047647
      dx2y2   :     0.015012
      dxy     :     0.031666
  3 C s       :     2.905647  s :     2.905647
      pz      :     0.972468  p :     3.018141
      px      :     1.015088
      py      :     1.030585
      dz2     :     0.005892  d :     0.081423
      dxz     :     0.010475
      dyz     :     0.010144
      dx2y2   :     0.024531
      dxy     :     0.030380
  4 C s       :     2.870094  s :     2.870094
      pz      :     0.972419  p :     3.066670
      px      :     1.039032
      py      :     1.055219
      dz2     :     0.008051  d :     0.097566
      dxz     :     0.011956
      dyz     :     0.017259
      dx2y2   :     0.029268
      dxy     :     0.031031
  5 C s       :     2.894404  s :     2.894404
      pz      :     0.942422  p :     3.001342
      px      :     1.010900
      py      :     1.048021
      dz2     :     0.011153  d :     0.086375
      dxz     :     0.011183
      dyz     :     0.011998
      dx2y2   :     0.024262
      dxy     :     0.027779
  6 C s       :     2.844877  s :     2.844877
      pz      :     1.039278  p :     3.119455
      px      :     1.029232
      py      :     1.050946
      dz2     :     0.023980  d :     0.090215
      dxz     :     0.015832
      dyz     :     0.011553
      dx2y2   :     0.018075
      dxy     :     0.020774
  7 H s       :     0.752512  s :     0.752512
      pz      :     0.096199  p :     0.181978
      px      :     0.038038
      py      :     0.047740
  8 H s       :     0.913429  s :     0.913429
      pz      :     0.014657  p :     0.066652
      px      :     0.032534
      py      :     0.019461
  9 H s       :     0.893774  s :     0.893774
      pz      :     0.020863  p :     0.074254
      px      :     0.011775
      py      :     0.041616
 10 H s       :     0.896116  s :     0.896116
      pz      :     0.018385  p :     0.068427
      px      :     0.037586
      py      :     0.012456
 11 H s       :     0.902166  s :     0.902166
      pz      :     0.015036  p :     0.072048
      px      :     0.024375
      py      :     0.032637
 12 H s       :     0.891814  s :     0.891814
      pz      :     0.040332  p :     0.067472
      px      :     0.013192
      py      :     0.013948
 13 H s       :     0.888706  s :     0.888706
      pz      :     0.013234  p :     0.070385
      px      :     0.024800
      py      :     0.032351

SPIN
  0 O s       :     0.000936  s :     0.000936
      pz      :     0.003917  p :     0.217017
      px      :     0.106586
      py      :     0.106514
      dz2     :    -0.000058  d :    -0.000236
      dxz     :     0.000017
      dyz     :    -0.000027
      dx2y2   :    -0.000044
      dxy     :    -0.000126
  1 O s       :     0.013976  s :     0.013976
      pz      :     0.005073  p :    -0.094144
      px      :    -0.023682
      py      :    -0.075535
      dz2     :     0.000179  d :     0.001551
      dxz     :    -0.000004
      dyz     :    -0.000006
      dx2y2   :     0.000047
      dxy     :     0.001335
  2 C s       :    -0.000051  s :    -0.000051
      pz      :     0.001804  p :    -0.005225
      px      :    -0.004891
      py      :    -0.002139
      dz2     :    -0.001097  d :     0.007523
      dxz     :     0.005576
      dyz     :     0.003069
      dx2y2   :     0.000139
      dxy     :    -0.000164
  3 C s       :     0.017533  s :     0.017533
      pz      :     0.391608  p :     0.456650
      px      :     0.023196
      py      :     0.041845
      dz2     :    -0.000926  d :    -0.005143
      dxz     :    -0.001379
      dyz     :    -0.001197
      dx2y2   :    -0.000889
      dxy     :    -0.000751
  4 C s       :    -0.009811  s :    -0.009811
      pz      :    -0.127335  p :    -0.174615
      px      :    -0.021678
      py      :    -0.025603
      dz2     :     0.002055  d :     0.018974
      dxz     :     0.002883
      dyz     :     0.009995
      dx2y2   :     0.001738
      dxy     :     0.002303
  5 C s       :     0.020498  s :     0.020498
      pz      :     0.374661  p :     0.515764
      px      :     0.095255
      py      :     0.045848
      dz2     :    -0.000996  d :    -0.004803
      dxz     :    -0.000686
      dyz     :    -0.001593
      dx2y2   :    -0.000687
      dxy     :    -0.000841
  6 C s       :    -0.002373  s :    -0.002373
      pz      :    -0.003652  p :    -0.014363
      px      :    -0.008584
      py      :    -0.002127
      dz2     :     0.005475  d :     0.008985
      dxz     :     0.001511
      dyz     :     0.000743
      dx2y2   :     0.000941
      dxy     :     0.000315
  7 H s       :    -0.004610  s :    -0.004610
      pz      :     0.000634  p :     0.006739
      px      :     0.002947
      py      :     0.003158
  8 H s       :     0.002583  s :     0.002583
      pz      :    -0.000068  p :    -0.000260
      px      :    -0.000214
      py      :     0.000023
  9 H s       :    -0.014240  s :    -0.014240
      pz      :     0.009885  p :     0.013415
      px      :     0.000559
      py      :     0.002970
 10 H s       :     0.005526  s :     0.005526
      pz      :    -0.003062  p :    -0.004701
      px      :    -0.001032
      py      :    -0.000607
 11 H s       :    -0.016037  s :    -0.016037
      pz      :     0.009374  p :     0.014713
      px      :     0.002864
      py      :     0.002476
 12 H s       :     0.024015  s :     0.024015
      pz      :    -0.000482  p :    -0.000671
      px      :    -0.000131
      py      :    -0.000057
 13 H s       :     0.005189  s :     0.005189
      pz      :    -0.000188  p :    -0.000303
      px      :    -0.000160
      py      :     0.000045


                      *****************************
                      * MAYER POPULATION ANALYSIS *
                      *****************************

  NA   - Mulliken gross atomic population
  ZA   - Total nuclear charge
  QA   - Mulliken gross atomic charge
  VA   - Mayer's total valence
  BVA  - Mayer's bonded valence
  FA   - Mayer's free valence

  ATOM       NA         ZA         QA         VA         BVA        FA
  0 O      8.2384     8.0000    -0.2384     2.0174     1.9595     0.0579
  1 O      8.2607     8.0000    -0.2607     1.9440     1.9213     0.0227
  2 C      5.9566     6.0000     0.0434     3.9921     3.9907     0.0014
  3 C      6.0242     6.0000    -0.0242     3.8071     3.5593     0.2478
  4 C      5.9969     6.0000     0.0031     3.8486     3.8074     0.0412
  5 C      6.0769     6.0000    -0.0769     3.9126     3.6162     0.2964
  6 C      5.9192     6.0000     0.0808     3.8095     3.8081     0.0015
  7 H      0.8146     1.0000     0.1854     1.0021     1.0020     0.0001
  8 H      0.9575     1.0000     0.0425     0.9892     0.9892     0.0000
  9 H      0.9496     1.0000     0.0504     0.9920     0.9910     0.0011
 10 H      0.9663     1.0000     0.0337     0.9863     0.9861     0.0001
 11 H      0.9647     1.0000     0.0353     0.9887     0.9873     0.0013
 12 H      0.9414     1.0000     0.0586     0.9775     0.9766     0.0009
 13 H      0.9331     1.0000     0.0669     1.0156     1.0156     0.0000

  Mayer bond orders larger than 0.100000
B(  0-O ,  1-O ) :   0.7945 B(  0-O ,  7-H ) :   0.9751 B(  1-O ,  2-C ) :   0.9481 
B(  1-O ,  3-C ) :   0.1020 B(  2-C ,  3-C ) :   0.9805 B(  2-C ,  6-C ) :   1.0174 
B(  2-C ,  8-H ) :   0.9487 B(  3-C ,  4-C ) :   1.3361 B(  3-C ,  9-H ) :   0.9928 
B(  4-C ,  5-C ) :   1.4348 B(  4-C , 10-H ) :   0.9932 B(  5-C ,  6-C ) :   0.9973 
B(  5-C , 11-H ) :   0.9802 B(  6-C , 12-H ) :   0.9244 B(  6-C , 13-H ) :   0.9268 



------------------
HIRSHFELD ANALYSIS
------------------

Total integrated alpha density =     27.000019302
Total integrated beta density  =     26.000016364

  ATOM     CHARGE      SPIN    
   0 O   -0.214757    0.209110
   1 O   -0.124614   -0.060352
   2 C    0.056100    0.023005
   3 C   -0.014322    0.364649
   4 C   -0.039025   -0.063745
   5 C   -0.002457    0.416337
   6 C   -0.051982    0.026020
   7 H    0.155981    0.006041
   8 H    0.036318    0.003928
   9 H    0.045968    0.024377
  10 H    0.046759   -0.005450
  11 H    0.038010    0.026526
  12 H    0.033874    0.023469
  13 H    0.034110    0.006085

  TOTAL  -0.000036    1.000003

-------
TIMINGS
-------

Total SCF time: 0 days 0 hours 1 min 29 sec 

Total time                  ....      89.349 sec
Sum of individual times     ....      89.155 sec  ( 99.8%)

Fock matrix formation       ....      87.112 sec  ( 97.5%)
  Split-RI-J                ....       5.129 sec  (  5.9% of F)
  Chain of spheres X        ....      60.347 sec  ( 69.3% of F)
  XC integration            ....      21.624 sec  ( 24.8% of F)
    Basis function eval.    ....       6.462 sec  ( 29.9% of XC)
    Density eval.           ....       5.998 sec  ( 27.7% of XC)
    XC-Functional eval.     ....       2.208 sec  ( 10.2% of XC)
    XC-Potential eval.      ....       6.471 sec  ( 29.9% of XC)
Diagonalization             ....       0.139 sec  (  0.2%)
Density matrix formation    ....       0.011 sec  (  0.0%)
Population analysis         ....       0.392 sec  (  0.4%)
Initial guess               ....       0.264 sec  (  0.3%)
Orbital Transformation      ....       0.000 sec  (  0.0%)
Orbital Orthonormalization  ....       0.000 sec  (  0.0%)
DIIS solution               ....       0.035 sec  (  0.0%)
Grid generation             ....       1.202 sec  (  1.3%)

Maximum memory used throughout the entire SCF-calculation: 63.6 MB


-------------------------------------------------------------------------------
                          DFT DISPERSION CORRECTION                            
                                                                               
                              DFTD3 V3.1  Rev 1                                
                          USING Becke-Johnson damping                          
-------------------------------------------------------------------------------
The PBE0 functional is recognized
Active option DFTDOPT                   ...         4   

molecular C6(AA) [au] = 1797.362977 


            DFT-D V3
 parameters
 s6 scaling factor         :     1.0000 
 a1 scaling factor         :     0.4145 
 s8 scaling factor         :     1.2177 
 a2 scaling factor         :     4.8593 
 ad hoc parameters k1-k3   :    16.0000     1.3333    -4.0000 

 Edisp/kcal,au: -6.435667518992  -0.010255887916 
 E6   /kcal   :  -4.086975562 
 E8   /kcal   :  -2.348691957 
 % E8         :  36.494923804 

-------------------------   ----------------
Dispersion correction           -0.010255888
-------------------------   ----------------


-------------------------   --------------------
FINAL SINGLE POINT ENERGY      -344.359757397307
-------------------------   --------------------

------------------------------------------------------------------------------
                         ORCA SCF GRADIENT CALCULATION
------------------------------------------------------------------------------

 ... reading COSX grid (gridx3)
Gradient of the Kohn-Sham DFT energy:
Kohn-Sham wavefunction type      ... UKS
Hartree-Fock exchange scaling    ...    0.250
Number of operators              ...    2
Number of atoms                  ...   14
Basis set dimensions             ...  133
Integral neglect threshold       ... 2.5e-11
Integral primitive cutoff        ... 2.5e-12
SHARK Integral package           ... ON

Nuc. rep. gradient       (SHARK) ... done (  0.0 sec)
HCore & Overlap gradient (SHARK) ... done (  0.1 sec)
RI-J gradient            (SHARK) ... done (  0.6 sec)
COSX-gradient                    ... done (  6.9 sec)
Exchange-correlation gradient    ... done
Dispersion correction            ... done

------------------
CARTESIAN GRADIENT
------------------

   1   O   :   -0.039602475   -0.028294589   -0.003113332
   2   O   :    0.059423636    0.020343630   -0.009818872
   3   C   :    0.000294219   -0.000154971   -0.000290162
   4   C   :    0.000132147   -0.000016919    0.000190136
   5   C   :   -0.000167862   -0.000062638   -0.000081745
   6   C   :   -0.019944935    0.008089709    0.012927406
   7   C   :   -0.000106098    0.000079230   -0.000037647
   8   H   :    0.000015831    0.000004978   -0.000003160
   9   H   :   -0.000109068   -0.000001776    0.000166702
  10   H   :   -0.000044149   -0.000000648   -0.000012888
  11   H   :   -0.000013893    0.000002258    0.000027512
  12   H   :   -0.000002503    0.000009316   -0.000043631
  13   H   :    0.000060419   -0.000006789    0.000004326
  14   H   :   -0.000033621    0.000051547    0.000110488

Difference to translation invariance:
           :   -0.0000983509    0.0000423385    0.0000251315

Difference to rotation invariance:
           :    0.0004574193    0.0000121572   -0.0000211193

Norm of the cartesian gradient     ...    0.0839690866
RMS gradient                       ...    0.0129567114
MAX gradient                       ...    0.0594236359

-------
TIMINGS
-------

Total SCF gradient time            ...       11.767 sec

One electron gradient       ....       0.099 sec  (  0.8%)
RI-J Coulomb gradient       ....       0.606 sec  (  5.1%)
COSX gradient               ....       6.894 sec  ( 58.6%)
XC gradient                 ....       3.852 sec  ( 32.7%)

Maximum memory used throughout the entire SCFGRAD-calculation: 50.4 MB

                            ***************************************
                            *     ORCA property calculations      *
                            ***************************************

                                    ---------------------
                                    Active property flags
                                    ---------------------
   (+) Dipole Moment


------------------------------------------------------------------------------
                       ORCA ELECTRIC PROPERTIES CALCULATION
------------------------------------------------------------------------------

Dipole Moment Calculation                       ... on
Quadrupole Moment Calculation                   ... off
Polarizability Calculation                      ... off
GBWName                                         ... 4_0_orca.gbw
Electron density                                ... 4_0_orca.scfp
The origin for moment calculation is the CENTER OF MASS  = (-0.345278,  0.029316  0.331914)

-------------
DIPOLE MOMENT
-------------
                                X             Y             Z
Electronic contribution:     -1.07101       0.55477       1.83969
Nuclear contribution   :      1.63315      -0.49950      -1.92717
                        -----------------------------------------
Total Dipole Moment    :      0.56215       0.05527      -0.08748
                        -----------------------------------------
Magnitude (a.u.)       :      0.57159
Magnitude (Debye)      :      1.45287



--------------------
Rotational spectrum 
--------------------
 
Rotational constants in cm-1:     0.173829     0.074960     0.065292 
Rotational constants in MHz :  5211.254561  2247.243276  1957.413291 

 Dipole components along the rotational axes: 
x,y,z [a.u.] :    -0.556650    -0.050431     0.119647 
x,y,z [Debye]:    -1.414891    -0.128185     0.304118 

 

Timings for individual modules:

Sum of individual times         ...      101.968 sec (=   1.699 min)
GTO integral calculation        ...        0.719 sec (=   0.012 min)   0.7 %
SCF iterations                  ...       89.453 sec (=   1.491 min)  87.7 %
SCF Gradient evaluation         ...       11.796 sec (=   0.197 min)  11.6 %
                             ****ORCA TERMINATED NORMALLY****
TOTAL RUN TIME: 0 days 0 hours 1 minutes 42 seconds 126 msec
