
                                 *****************
                                 * O   R   C   A *
                                 *****************

                                            #,                                       
                                            ###                                      
                                            ####                                     
                                            #####                                    
                                            ######                                   
                                           ########,                                 
                                     ,,################,,,,,                         
                               ,,#################################,,                 
                          ,,##########################################,,             
                       ,#########################################, ''#####,          
                    ,#############################################,,   '####,        
                  ,##################################################,,,,####,       
                ,###########''''           ''''###############################       
              ,#####''   ,,,,##########,,,,          '''####'''          '####       
            ,##' ,,,,###########################,,,                        '##       
           ' ,,###''''                  '''############,,,                           
         ,,##''                                '''############,,,,        ,,,,,,###''
      ,#''                                            '''#######################'''  
     '                                                          ''''####''''         
             ,#######,   #######,   ,#######,      ##                                
            ,#'     '#,  ##    ##  ,#'     '#,    #''#        ######   ,####,        
            ##       ##  ##   ,#'  ##            #'  '#       #        #'  '#        
            ##       ##  #######   ##           ,######,      #####,   #    #        
            '#,     ,#'  ##    ##  '#,     ,#' ,#      #,         ##   #,  ,#        
             '#######'   ##     ##  '#######'  #'      '#     #####' # '####'        



                  #######################################################
                  #                        -***-                        #
                  #          Department of theory and spectroscopy      #
                  #    Directorship and core code : Frank Neese         #
                  #        Max Planck Institute fuer Kohlenforschung    #
                  #                Kaiser Wilhelm Platz 1               #
                  #                 D-45470 Muelheim/Ruhr               #
                  #                      Germany                        #
                  #                                                     #
                  #                  All rights reserved                #
                  #                        -***-                        #
                  #######################################################


                         Program Version 5.0.4 -  RELEASE  -


 With contributions from (in alphabetic order):
   Daniel Aravena         : Magnetic Suceptibility
   Michael Atanasov       : Ab Initio Ligand Field Theory (pilot matlab implementation)
   Alexander A. Auer      : GIAO ZORA, VPT2 properties, NMR spectrum
   Ute Becker             : Parallelization
   Giovanni Bistoni       : ED, misc. LED, open-shell LED, HFLD
   Martin Brehm           : Molecular dynamics
   Dmytro Bykov           : SCF Hessian
   Vijay G. Chilkuri      : MRCI spin determinant printing, contributions to CSF-ICE
   Dipayan Datta          : RHF DLPNO-CCSD density
   Achintya Kumar Dutta   : EOM-CC, STEOM-CC
   Dmitry Ganyushin       : Spin-Orbit,Spin-Spin,Magnetic field MRCI
   Miquel Garcia          : C-PCM and meta-GGA Hessian, CC/C-PCM, Gaussian charge scheme
   Yang Guo               : DLPNO-NEVPT2, F12-NEVPT2, CIM, IAO-localization
   Andreas Hansen         : Spin unrestricted coupled pair/coupled cluster methods
   Benjamin Helmich-Paris : MC-RPA, TRAH-SCF, COSX integrals
   Lee Huntington         : MR-EOM, pCC
   Robert Izsak           : Overlap fitted RIJCOSX, COSX-SCS-MP3, EOM
   Marcus Kettner         : VPT2
   Christian Kollmar      : KDIIS, OOCD, Brueckner-CCSD(T), CCSD density, CASPT2, CASPT2-K
   Simone Kossmann        : Meta GGA functionals, TD-DFT gradient, OOMP2, MP2 Hessian
   Martin Krupicka        : Initial AUTO-CI
   Lucas Lang             : DCDCAS
   Marvin Lechner         : AUTO-CI (C++ implementation), FIC-MRCC
   Dagmar Lenk            : GEPOL surface, SMD
   Dimitrios Liakos       : Extrapolation schemes; Compound Job, initial MDCI parallelization
   Dimitrios Manganas     : Further ROCIS development; embedding schemes
   Dimitrios Pantazis     : SARC Basis sets
   Anastasios Papadopoulos: AUTO-CI, single reference methods and gradients
   Taras Petrenko         : DFT Hessian,TD-DFT gradient, ASA, ECA, R-Raman, ABS, FL, XAS/XES, NRVS
   Peter Pinski           : DLPNO-MP2, DLPNO-MP2 Gradient
   Christoph Reimann      : Effective Core Potentials
   Marius Retegan         : Local ZFS, SOC
   Christoph Riplinger    : Optimizer, TS searches, QM/MM, DLPNO-CCSD(T), (RO)-DLPNO pert. Triples
   Tobias Risthaus        : Range-separated hybrids, TD-DFT gradient, RPA, STAB
   Michael Roemelt        : Original ROCIS implementation
   Masaaki Saitow         : Open-shell DLPNO-CCSD energy and density
   Barbara Sandhoefer     : DKH picture change effects
   Avijit Sen             : IP-ROCIS
   Kantharuban Sivalingam : CASSCF convergence, NEVPT2, FIC-MRCI
   Bernardo de Souza      : ESD, SOC TD-DFT
   Georgi Stoychev        : AutoAux, RI-MP2 NMR, DLPNO-MP2 response
   Willem Van den Heuvel  : Paramagnetic NMR
   Boris Wezisla          : Elementary symmetry handling
   Frank Wennmohs         : Technical directorship


 We gratefully acknowledge several colleagues who have allowed us to
 interface, adapt or use parts of their codes:
   Stefan Grimme, W. Hujo, H. Kruse, P. Pracht,  : VdW corrections, initial TS optimization,
                  C. Bannwarth, S. Ehlert          DFT functionals, gCP, sTDA/sTD-DF
   Ed Valeev, F. Pavosevic, A. Kumar             : LibInt (2-el integral package), F12 methods
   Garnet Chan, S. Sharma, J. Yang, R. Olivares  : DMRG
   Ulf Ekstrom                                   : XCFun DFT Library
   Mihaly Kallay                                 : mrcc  (arbitrary order and MRCC methods)
   Jiri Pittner, Ondrej Demel                    : Mk-CCSD
   Frank Weinhold                                : gennbo (NPA and NBO analysis)
   Christopher J. Cramer and Donald G. Truhlar   : smd solvation model
   Lars Goerigk                                  : TD-DFT with DH, B97 family of functionals
   V. Asgeirsson, H. Jonsson                     : NEB implementation
   FAccTs GmbH                                   : IRC, NEB, NEB-TS, DLPNO-Multilevel, CI-OPT
                                                   MM, QMMM, 2- and 3-layer-ONIOM, Crystal-QMMM,
                                                   LR-CPCM, SF, NACMEs, symmetry and pop. for TD-DFT,
                                                   nearIR, NL-DFT gradient (VV10), updates on ESD,
                                                   ML-optimized integration grids
   S Lehtola, MJT Oliveira, MAL Marques          : LibXC Library
   Liviu Ungur et al                             : ANISO software


 Your calculation uses the libint2 library for the computation of 2-el integrals
 For citations please refer to: http://libint.valeyev.net

 Your ORCA version has been built with support for libXC version: 5.1.0
 For citations please refer to: https://tddft.org/programs/libxc/

 This ORCA versions uses:
   CBLAS   interface :  Fast vector & matrix operations
   LAPACKE interface :  Fast linear algebra routines
   SCALAPACK package :  Parallel linear algebra routines
   Shared memory     :  Shared parallel matrices
   BLAS/LAPACK       :  OpenBLAS 0.3.15  USE64BITINT DYNAMIC_ARCH NO_AFFINITY SkylakeX SINGLE_THREADED
        Core in use  :  SkylakeX
   Copyright (c) 2011-2014, The OpenBLAS Project


Your calculation utilizes the atom-pairwise dispersion correction
with the Becke-Johnson damping scheme (D3BJ)
Cite in your paper:
S.Grimme, S.Ehrlich, L.Goerigk, J Comput Chem, (2011), 32, 1456–1465 
S.Grimme, J.Antony, S.Ehrlich and H.Krieg, J.Chem.Phys., 132, (2010), 154104 
   

================================================================================

----- Orbital basis set information -----
Your calculation utilizes the basis: def2-SVP
   F. Weigend and R. Ahlrichs, Phys. Chem. Chem. Phys. 7, 3297 (2005).

----- AuxJ basis set information -----
Your calculation utilizes the auxiliary basis: def2/J
   F. Weigend, Phys. Chem. Chem. Phys. 8, 1057 (2006).

================================================================================
                                        WARNINGS
                       Please study these warnings very carefully!
================================================================================


WARNING: your system is open-shell and RHF/RKS was chosen
  ===> : WILL SWITCH to UHF/UKS


INFO   : the flag for use of the SHARK integral package has been found!

================================================================================
                                       INPUT FILE
================================================================================
NAME = 4_1_orca.inp
|  1> ! EnGrad PBE0 RIJCOSX D3BJ def2-SVP def2/J 
|  2> %output 
|  3> xyzfile=True 
|  4> end 
|  5> %scf 
|  6> maxiter 250 
|  7> end
|  8> %output
|  9> Print[P_Hirshfeld] = 1
| 10> end
| 11> % maxcore
| 12> 4000
| 13> *xyz 0 2
| 14> O   -2.15555473  -0.82208020   0.97104265 
| 15> O   -0.99899618   0.07467899   1.07819252 
| 16> C   -0.65600426   0.57496523  -0.24744417 
| 17> C    0.53640379   1.40470921   0.13563078 
| 18> C    1.61077757   0.51702190   0.21627291 
| 19> C    1.26889621  -0.73201149  -0.32351079 
| 20> C   -0.09206439  -0.61850038  -0.99767754 
| 21> H   -2.19992808  -1.12109619   1.90113589 
| 22> H   -1.53155065   1.09147506  -0.66803736 
| 23> H    0.48153351   2.42642228   0.50992043 
| 24> H    2.58371073   0.73331091   0.65874747 
| 25> H    1.85064808  -1.60109815  -0.29595284 
| 26> H    0.05372149  -0.44185946  -2.07922144 
| 27> H   -0.75135677  -1.48594703  -0.85916816 
| 28> *
| 29> 
| 30>                          ****END OF INPUT****
================================================================================

                     *******************************
                     * Energy+Gradient Calculation *
                     *******************************

---------------------------------
CARTESIAN COORDINATES (ANGSTROEM)
---------------------------------
  O     -2.155555   -0.822080    0.971043
  O     -0.998996    0.074679    1.078193
  C     -0.656004    0.574965   -0.247444
  C      0.536404    1.404709    0.135631
  C      1.610778    0.517022    0.216273
  C      1.268896   -0.732011   -0.323511
  C     -0.092064   -0.618500   -0.997678
  H     -2.199928   -1.121096    1.901136
  H     -1.531551    1.091475   -0.668037
  H      0.481534    2.426422    0.509920
  H      2.583711    0.733311    0.658747
  H      1.850648   -1.601098   -0.295953
  H      0.053721   -0.441859   -2.079221
  H     -0.751357   -1.485947   -0.859168

----------------------------
CARTESIAN COORDINATES (A.U.)
----------------------------
  NO LB      ZA    FRAG     MASS         X           Y           Z
   0 O     8.0000    0    15.999   -4.073408   -1.553506    1.835005
   1 O     8.0000    0    15.999   -1.887829    0.141123    2.037489
   2 C     6.0000    0    12.011   -1.239668    1.086527   -0.467602
   3 C     6.0000    0    12.011    1.013656    2.654516    0.256305
   4 C     6.0000    0    12.011    3.043928    0.977030    0.408697
   5 C     6.0000    0    12.011    2.397866   -1.383301   -0.611347
   6 C     6.0000    0    12.011   -0.173976   -1.168796   -1.885337
   7 H     1.0000    0     1.008   -4.157262   -2.118565    3.592626
   8 H     1.0000    0     1.008   -2.894211    2.062589   -1.262408
   9 H     1.0000    0     1.008    0.909966    4.585274    0.963610
  10 H     1.0000    0     1.008    4.882506    1.385757    1.244852
  11 H     1.0000    0     1.008    3.497218   -3.025637   -0.559270
  12 H     1.0000    0     1.008    0.101519   -0.834993   -3.929159
  13 H     1.0000    0     1.008   -1.419859   -2.808033   -1.623593

--------------------------------
INTERNAL COORDINATES (ANGSTROEM)
--------------------------------
 O      0   0   0     0.000000000000     0.00000000     0.00000000
 O      1   0   0     1.467407857097     0.00000000     0.00000000
 C      2   1   0     1.457821118311   109.19339819     0.00000000
 C      3   2   1     1.502350973431    98.30302933   181.43023789
 C      4   3   2     1.395983858294   105.92464781    82.19039123
 C      5   4   3     1.402973170248   110.87595488    11.33159236
 C      3   2   1     1.518301171932   105.48336672   290.01235952
 H      1   2   3     0.977984146886    98.81034754   175.23415366
 H      3   2   1     1.100119319439   108.75505218    57.99390755
 H      4   3   2     1.089495794913   124.44127350   275.91457427
 H      5   4   3     1.090487783481   125.73023417   192.90202570
 H      6   5   4     1.046186551934   126.43635199   187.01263086
 H      7   3   2     1.105528265153   114.00345125   169.95085323
 H      7   3   2     1.098323714244   109.60575260    47.22607111

---------------------------
INTERNAL COORDINATES (A.U.)
---------------------------
 O      0   0   0     0.000000000000     0.00000000     0.00000000
 O      1   0   0     2.772998976677     0.00000000     0.00000000
 C      2   1   0     2.754882665854   109.19339819     0.00000000
 C      3   2   1     2.839031896814    98.30302933   181.43023789
 C      4   3   2     2.638027179550   105.92464781    82.19039123
 C      5   4   3     2.651235065008   110.87595488    11.33159236
 C      3   2   1     2.869173403763   105.48336672   290.01235952
 H      1   2   3     1.848122200930    98.81034754   175.23415366
 H      3   2   1     2.078924228376   108.75505218    57.99390755
 H      4   3   2     2.058848676445   124.44127350   275.91457427
 H      5   4   3     2.060723263166   125.73023417   192.90202570
 H      6   5   4     1.977006068146   126.43635199   187.01263086
 H      7   3   2     2.089145654449   114.00345125   169.95085323
 H      7   3   2     2.075531026312   109.60575260    47.22607111

---------------------
BASIS SET INFORMATION
---------------------
There are 3 groups of distinct atoms

 Group   1 Type O   : 7s4p1d contracted to 3s2p1d pattern {511/31/1}
 Group   2 Type C   : 7s4p1d contracted to 3s2p1d pattern {511/31/1}
 Group   3 Type H   : 4s1p contracted to 2s1p pattern {31/1}

Atom   0O    basis set group =>   1
Atom   1O    basis set group =>   1
Atom   2C    basis set group =>   2
Atom   3C    basis set group =>   2
Atom   4C    basis set group =>   2
Atom   5C    basis set group =>   2
Atom   6C    basis set group =>   2
Atom   7H    basis set group =>   3
Atom   8H    basis set group =>   3
Atom   9H    basis set group =>   3
Atom  10H    basis set group =>   3
Atom  11H    basis set group =>   3
Atom  12H    basis set group =>   3
Atom  13H    basis set group =>   3
---------------------------------
AUXILIARY/J BASIS SET INFORMATION
---------------------------------
There are 3 groups of distinct atoms

 Group   1 Type O   : 12s5p4d2f1g contracted to 6s4p3d1f1g pattern {711111/2111/211/2/1}
 Group   2 Type C   : 12s5p4d2f1g contracted to 6s4p3d1f1g pattern {711111/2111/211/2/1}
 Group   3 Type H   : 5s2p1d contracted to 3s1p1d pattern {311/2/1}

Atom   0O    basis set group =>   1
Atom   1O    basis set group =>   1
Atom   2C    basis set group =>   2
Atom   3C    basis set group =>   2
Atom   4C    basis set group =>   2
Atom   5C    basis set group =>   2
Atom   6C    basis set group =>   2
Atom   7H    basis set group =>   3
Atom   8H    basis set group =>   3
Atom   9H    basis set group =>   3
Atom  10H    basis set group =>   3
Atom  11H    basis set group =>   3
Atom  12H    basis set group =>   3
Atom  13H    basis set group =>   3
------------------------------------------------------------------------------
                           ORCA GTO INTEGRAL CALCULATION
                           -- RI-GTO INTEGRALS CHOSEN --
------------------------------------------------------------------------------
------------------------------------------------------------------------------
                   ___                                                        
                  /   \      - P O W E R E D   B Y -                         
                 /     \                                                     
                 |  |  |   _    _      __       _____    __    __             
                 |  |  |  | |  | |    /  \     |  _  \  |  |  /  |          
                  \  \/   | |  | |   /    \    | | | |  |  | /  /          
                 / \  \   | |__| |  /  /\  \   | |_| |  |  |/  /          
                |  |  |   |  __  | /  /__\  \  |    /   |      \           
                |  |  |   | |  | | |   __   |  |    \   |  |\   \          
                \     /   | |  | | |  |  |  |  | |\  \  |  | \   \       
                 \___/    |_|  |_| |__|  |__|  |_| \__\ |__|  \__/        
                                                                              
                      - O R C A' S   B I G   F R I E N D -                    
                                      &                                       
                       - I N T E G R A L  F E E D E R -                       
                                                                              
 v1 FN, 2020, v2 2021                                                         
------------------------------------------------------------------------------


Reading SHARK input file 4_1_orca.SHARKINP.tmp ... ok
----------------------
SHARK INTEGRAL PACKAGE
----------------------

Number of atoms                             ...     14
Number of basis functions                   ...    133
Number of shells                            ...     63
Maximum angular momentum                    ...      2
Integral batch strategy                     ... SHARK/LIBINT Hybrid
RI-J (if used) integral strategy            ... SPLIT-RIJ (Revised 2003 algorithm where possible)
Printlevel                                  ...      1
Contraction scheme used                     ... SEGMENTED contraction
Coulomb Range Separation                    ... NOT USED
Exchange Range Separation                   ... NOT USED
Finite Nucleus Model                        ... NOT USED
Auxiliary Coulomb fitting basis             ... AVAILABLE
   # of basis functions in Aux-J            ...    420
   # of shells in Aux-J                     ...    140
   Maximum angular momentum in Aux-J        ...      4
Auxiliary J/K fitting basis                 ... NOT available
Auxiliary Correlation fitting basis         ... NOT available
Auxiliary 'external' fitting basis          ... NOT available
Integral threshold                          ...     2.500000e-11
Primitive cut-off                           ...     2.500000e-12
Primitive pair pre-selection threshold      ...     2.500000e-12

Calculating pre-screening integrals         ... done (  0.0 sec) Dimension = 63
Organizing shell pair data                  ... done (  0.0 sec)
Shell pair information
Total number of shell pairs                 ...      2016
Shell pairs after pre-screening             ...      1963
Total number of primitive shell pairs       ...      7252
Primitive shell pairs kept                  ...      5362
          la=0 lb=0:    609 shell pairs
          la=1 lb=0:    716 shell pairs
          la=1 lb=1:    226 shell pairs
          la=2 lb=0:    238 shell pairs
          la=2 lb=1:    146 shell pairs
          la=2 lb=2:     28 shell pairs

Calculating one electron integrals          ... done (  0.0 sec)
Calculating RI/J V-Matrix + Cholesky decomp.... done (  0.0 sec)
Calculating Nuclear repulsion               ... done (  0.0 sec) ENN=    302.673115726099 Eh

SHARK setup successfully completed in   0.1 seconds

Maximum memory used throughout the entire GTOINT-calculation: 17.0 MB
-------------------------------------------------------------------------------
                                 ORCA SCF
-------------------------------------------------------------------------------

------------
SCF SETTINGS
------------
Hamiltonian:
 Density Functional     Method          .... DFT(GTOs)
 Exchange Functional    Exchange        .... PBE
   PBE kappa parameter   XKappa         ....  0.804000
   PBE mue parameter    XMuePBE         ....  0.219520
 Correlation Functional Correlation     .... PBE
   PBE beta parameter  CBetaPBE         ....  0.066725
 LDA part of GGA corr.  LDAOpt          .... PW91-LDA
 Gradients option       PostSCFGGA      .... off
 Hybrid DFT is turned on
   Fraction HF Exchange ScalHFX         ....  0.250000
   Scaling of DF-GGA-X  ScalDFX         ....  0.750000
   Scaling of DF-GGA-C  ScalDFC         ....  1.000000
   Scaling of DF-LDA-C  ScalLDAC        ....  1.000000
   Perturbative correction              ....  0.000000
   Density functional embedding theory  .... OFF
   NL short-range parameter             ....  6.900000
 RI-approximation to the Coulomb term is turned on
   Number of AuxJ basis functions       .... 420
   RIJ-COSX (HFX calculated with COS-X)).... on


General Settings:
 Integral files         IntName         .... 4_1_orca
 Hartree-Fock type      HFTyp           .... UHF
 Total Charge           Charge          ....    0
 Multiplicity           Mult            ....    2
 Number of Electrons    NEL             ....   53
 Basis Dimension        Dim             ....  133
 Nuclear Repulsion      ENuc            ....    302.6731157261 Eh

Convergence Acceleration:
 DIIS                   CNVDIIS         .... on
   Start iteration      DIISMaxIt       ....    12
   Startup error        DIISStart       ....  0.200000
   # of expansion vecs  DIISMaxEq       ....     5
   Bias factor          DIISBfac        ....   1.050
   Max. coefficient     DIISMaxC        ....  10.000
 Trust-Rad. Augm. Hess. CNVTRAH         .... auto
   Auto Start mean grad. ratio tolernc. ....  1.125000
   Auto Start start iteration           ....    20
   Auto Start num. interpolation iter.  ....    10
   Max. Number of Micro iterations      ....    16
   Max. Number of Macro iterations      .... Maxiter - #DIIS iter
   Number of Davidson start vectors     ....     2
   Converg. threshold I  (grad. norm)   ....   1.000e-05
   Converg. threshold II (energy diff.) ....   1.000e-08
   Grad. Scal. Fac. for Micro threshold ....   0.100
   Minimum threshold for Micro iter.    ....   0.010
   NR start threshold (gradient norm)   ....   0.001
   Initial trust radius                 ....   0.400
   Minimum AH scaling param. (alpha)    ....   1.000
   Maximum AH scaling param. (alpha)    .... 1000.000
   Orbital update algorithm             .... Taylor
   White noise on init. David. guess    .... on
   Maximum white noise                  ....   0.010
   Quad. conv. algorithm                .... NR
 SOSCF                  CNVSOSCF        .... off
 Level Shifting         CNVShift        .... on
   Level shift para.    LevelShift      ....    0.2500
   Turn off err/grad.   ShiftErr        ....    0.0010
 Zerner damping         CNVZerner       .... off
 Static damping         CNVDamp         .... on
   Fraction old density DampFac         ....    0.7000
   Max. Damping (<1)    DampMax         ....    0.9800
   Min. Damping (>=0)   DampMin         ....    0.0000
   Turn off err/grad.   DampErr         ....    0.1000
 Fernandez-Rico         CNVRico         .... off

SCF Procedure:
 Maximum # iterations   MaxIter         ....   250
 SCF integral mode      SCFMode         .... Direct
   Integral package                     .... SHARK and LIBINT hybrid scheme
 Reset frequency        DirectResetFreq ....    20
 Integral Threshold     Thresh          ....  2.500e-11 Eh
 Primitive CutOff       TCut            ....  2.500e-12 Eh

Convergence Tolerance:
 Convergence Check Mode ConvCheckMode   .... Total+1el-Energy
 Convergence forced     ConvForced      .... 0
 Energy Change          TolE            ....  1.000e-08 Eh
 1-El. energy change                    ....  1.000e-05 Eh
 DIIS Error             TolErr          ....  5.000e-07


Diagonalization of the overlap matrix:
Smallest eigenvalue                        ... 9.791e-04
Time for diagonalization                   ...    0.003 sec
Threshold for overlap eigenvalues          ... 1.000e-08
Number of eigenvalues below threshold      ... 0
Time for construction of square roots      ...    0.001 sec
Total time needed                          ...    0.004 sec

Time for model grid setup =    0.121 sec

------------------------------
INITIAL GUESS: MODEL POTENTIAL
------------------------------
Loading Hartree-Fock densities                     ... done
Calculating cut-offs                               ... done
Initializing the effective Hamiltonian             ... done
Setting up the integral package (SHARK)            ... done
Starting the Coulomb interaction                   ... done (   0.1 sec)
Reading the grid                                   ... done
Mapping shells                                     ... done
Starting the XC term evaluation                    ... done (   0.1 sec)
  promolecular density results
     # of electrons  =     52.996928479
     EX              =    -43.862383797
     EC              =     -1.757963489
     EX+EC           =    -45.620347286
Transforming the Hamiltonian                       ... done (   0.0 sec)
Diagonalizing the Hamiltonian                      ... done (   0.0 sec)
Back transforming the eigenvectors                 ... done (   0.0 sec)
Now organizing SCF variables                       ... done
                      ------------------
                      INITIAL GUESS DONE (   0.3 sec)
                      ------------------
-------------------
DFT GRID GENERATION
-------------------

General Integration Accuracy     IntAcc      ... 4.388
Radial Grid Type                 RadialGrid  ... OptM3 with GC (2021)
Angular Grid (max. ang.)         AngularGrid ... 4 (Lebedev-302)
Angular grid pruning method      GridPruning ... 4 (adaptive)
Weight generation scheme         WeightScheme... Becke
Basis function cutoff            BFCut       ... 1.0000e-11
Integration weight cutoff        WCut        ... 1.0000e-14
Angular grids for H and He will be reduced by one unit
Partially contracted basis set               ... off
Rotationally invariant grid construction     ... off

Total number of grid points                  ...    64865
Total number of batches                      ...     1019
Average number of points per batch           ...       63
Average number of grid points per atom       ...     4633
Time for grid setup =    0.492 sec

--------------------
COSX GRID GENERATION
--------------------

GRIDX 1
-------
General Integration Accuracy     IntAcc      ... 3.816
Radial Grid Type                 RadialGrid  ... OptM3 with GC (2021)
Angular Grid (max. ang.)         AngularGrid ... 1 (Lebedev-50)
Angular grid pruning method      GridPruning ... 4 (adaptive)
Weight generation scheme         WeightScheme... Becke
Basis function cutoff            BFCut       ... 1.0000e-11
Integration weight cutoff        WCut        ... 1.0000e-14
Angular grids for H and He will be reduced by one unit
Partially contracted basis set               ... on
Rotationally invariant grid construction     ... off

Total number of grid points                  ...     8293
Total number of batches                      ...      136
Average number of points per batch           ...       60
Average number of grid points per atom       ...      592
UseSFitting                                  ... on

GRIDX 2
-------
General Integration Accuracy     IntAcc      ... 4.020
Radial Grid Type                 RadialGrid  ... OptM3 with GC (2021)
Angular Grid (max. ang.)         AngularGrid ... 2 (Lebedev-110)
Angular grid pruning method      GridPruning ... 4 (adaptive)
Weight generation scheme         WeightScheme... Becke
Basis function cutoff            BFCut       ... 1.0000e-11
Integration weight cutoff        WCut        ... 1.0000e-14
Angular grids for H and He will be reduced by one unit
Partially contracted basis set               ... on
Rotationally invariant grid construction     ... off

Total number of grid points                  ...    18044
Total number of batches                      ...      288
Average number of points per batch           ...       62
Average number of grid points per atom       ...     1289
UseSFitting                                  ... on

GRIDX 3
-------
General Integration Accuracy     IntAcc      ... 4.338
Radial Grid Type                 RadialGrid  ... OptM3 with GC (2021)
Angular Grid (max. ang.)         AngularGrid ... 3 (Lebedev-194)
Angular grid pruning method      GridPruning ... 4 (adaptive)
Weight generation scheme         WeightScheme... Becke
Basis function cutoff            BFCut       ... 1.0000e-11
Integration weight cutoff        WCut        ... 1.0000e-14
Angular grids for H and He will be reduced by one unit
Partially contracted basis set               ... on
Rotationally invariant grid construction     ... off

Total number of grid points                  ...    39630
Total number of batches                      ...      627
Average number of points per batch           ...       63
Average number of grid points per atom       ...     2831
UseSFitting                                  ... on

Time for X-Grid setup             =    0.560 sec

--------------
SCF ITERATIONS
--------------
ITER       Energy         Delta-E        Max-DP      RMS-DP      [F,P]     Damp
               ***  Starting incremental Fock matrix formation  ***
  0   -344.2523686316   0.000000000000 0.03082630  0.00103796  0.0740175 0.7000
  1   -344.3033788850  -0.051010253441 0.01966466  0.00073490  0.0374436 0.7000
                               ***Turning on DIIS***
  2   -344.3269264739  -0.023547588914 0.03143808  0.00133095  0.0168358 0.0000
  3   -344.3636598481  -0.036733374135 0.01452508  0.00056952  0.0176047 0.0000
  4   -344.3716154245  -0.007955576405 0.00500765  0.00014047  0.0039919 0.0000
  5   -344.3720864668  -0.000471042284 0.00377560  0.00009573  0.0030713 0.0000
  6   -344.3722840191  -0.000197552376 0.00307807  0.00007069  0.0019642 0.0000
  7   -344.3724129691  -0.000128949984 0.00270983  0.00005791  0.0011876 0.0000
  8   -344.3724677503  -0.000054781222 0.00214123  0.00004878  0.0007799 0.0000
               *** Restarting incremental Fock matrix formation ***
                                   *** Resetting DIIS ***
  9   -344.3724780045  -0.000010254173 0.00084754  0.00001815  0.0003020 0.0000
 10   -344.3724776919   0.000000312572 0.00038943  0.00000964  0.0003966 0.0000
 11   -344.3724798358  -0.000002143822 0.00013281  0.00000370  0.0000730 0.0000
 12   -344.3724799887  -0.000000152962 0.00009852  0.00000244  0.0000378 0.0000
 13   -344.3724800523  -0.000000063600 0.00004505  0.00000116  0.0000285 0.0000
 14   -344.3724800611  -0.000000008780 0.00002138  0.00000045  0.0000287 0.0000
 15   -344.3724800658  -0.000000004736 0.00000976  0.00000020  0.0000066 0.0000
 16   -344.3724800623   0.000000003553 0.00000401  0.00000010  0.0000024 0.0000
 17   -344.3724800670  -0.000000004722 0.00000424  0.00000009  0.0000014 0.0000
                 **** Energy Check signals convergence ****

               *****************************************************
               *                     SUCCESS                       *
               *           SCF CONVERGED AFTER  18 CYCLES          *
               *****************************************************

Old exchange energy                            =    -11.174610075 Eh
New exchange energy                            =    -11.174612016 Eh
Exchange energy change after final integration =     -0.000001941 Eh
Total energy after final integration           =   -344.372482008 Eh
Final COS-X integration done in                =     5.278 sec

----------------
TOTAL SCF ENERGY
----------------

Total Energy       :         -344.37248201 Eh           -9370.85164 eV

Components:
Nuclear Repulsion  :          302.67311573 Eh            8236.15420 eV
Electronic Energy  :         -647.04559773 Eh          -17607.00584 eV
One Electron Energy:        -1068.74495544 Eh          -29082.02874 eV
Two Electron Energy:          421.69935770 Eh           11475.02290 eV
Max COSX asymmetry :            0.00000114 Eh               0.00003 eV

Virial components:
Potential Energy   :         -685.80423416 Eh          -18661.68195 eV
Kinetic Energy     :          341.43175215 Eh            9290.83031 eV
Virial Ratio       :            2.00861294


DFT components:
N(Alpha)           :       27.000021716012 electrons
N(Beta)            :       26.000023374932 electrons
N(Total)           :       53.000045090944 electrons
E(X)               :      -33.455628434301 Eh       
E(C)               :       -1.769860590926 Eh       
E(XC)              :      -35.225489025227 Eh       
DFET-embed. en.    :        0.000000000000 Eh       

---------------
SCF CONVERGENCE
---------------

  Last Energy change         ...    9.0455e-10  Tolerance :   1.0000e-08
  Last MAX-Density change    ...    0.0000e+00  Tolerance :   1.0000e-07
  Last RMS-Density change    ...    0.0000e+00  Tolerance :   5.0000e-09
  Last DIIS Error            ...    6.5503e-07  Tolerance :   5.0000e-07

             **** THE GBW FILE WAS UPDATED (4_1_orca.gbw) ****
             **** DENSITY 4_1_orca.scfp WAS UPDATED ****
             **** ENERGY FILE WAS UPDATED (4_1_orca.en.tmp) ****
----------------------
UHF SPIN CONTAMINATION
----------------------

Warning: in a DFT calculation there is little theoretical justification to 
         calculate <S**2> as in Hartree-Fock theory. We will do it anyways
         but you should keep in mind that the values have only limited relevance

Expectation value of <S**2>     :     0.791034
Ideal value S*(S+1) for S=0.5   :     0.750000
Deviation                       :     0.041034

             **** THE GBW FILE WAS UPDATED (4_1_orca.gbw) ****
             **** DENSITY 4_1_orca.scfp WAS UPDATED ****
----------------
ORBITAL ENERGIES
----------------
                 SPIN UP ORBITALS
  NO   OCC          E(Eh)            E(eV) 
   0   1.0000     -19.251465      -523.8590 
   1   1.0000     -19.247348      -523.7470 
   2   1.0000     -10.287664      -279.9416 
   3   1.0000     -10.245784      -278.8020 
   4   1.0000     -10.244653      -278.7712 
   5   1.0000     -10.239429      -278.6290 
   6   1.0000     -10.234123      -278.4846 
   7   1.0000      -1.114162       -30.3179 
   8   1.0000      -0.934588       -25.4314 
   9   1.0000      -0.848177       -23.0801 
  10   1.0000      -0.730772       -19.8853 
  11   1.0000      -0.707640       -19.2559 
  12   1.0000      -0.583035       -15.8652 
  13   1.0000      -0.558547       -15.1988 
  14   1.0000      -0.542506       -14.7623 
  15   1.0000      -0.509688       -13.8693 
  16   1.0000      -0.495121       -13.4729 
  17   1.0000      -0.445148       -12.1131 
  18   1.0000      -0.408046       -11.1035 
  19   1.0000      -0.401479       -10.9248 
  20   1.0000      -0.388944       -10.5837 
  21   1.0000      -0.376538       -10.2461 
  22   1.0000      -0.358375        -9.7519 
  23   1.0000      -0.343183        -9.3385 
  24   1.0000      -0.319224        -8.6865 
  25   1.0000      -0.247791        -6.7427 
  26   1.0000      -0.203863        -5.5474 
  27   0.0000       0.019496         0.5305 
  28   0.0000       0.058229         1.5845 
  29   0.0000       0.084610         2.3024 
  30   0.0000       0.097453         2.6518 
  31   0.0000       0.117910         3.2085 
  32   0.0000       0.128932         3.5084 
  33   0.0000       0.138824         3.7776 
  34   0.0000       0.145611         3.9623 
  35   0.0000       0.154438         4.2025 
  36   0.0000       0.197184         5.3657 
  37   0.0000       0.209205         5.6928 
  38   0.0000       0.215965         5.8767 
  39   0.0000       0.275328         7.4921 
  40   0.0000       0.340392         9.2625 
  41   0.0000       0.379524        10.3274 
  42   0.0000       0.396327        10.7846 
  43   0.0000       0.440409        11.9841 
  44   0.0000       0.469437        12.7740 
  45   0.0000       0.487040        13.2530 
  46   0.0000       0.508948        13.8492 
  47   0.0000       0.519998        14.1499 
  48   0.0000       0.550063        14.9680 
  49   0.0000       0.562672        15.3111 
  50   0.0000       0.589337        16.0367 
  51   0.0000       0.608595        16.5607 
  52   0.0000       0.621883        16.9223 
  53   0.0000       0.631859        17.1938 
  54   0.0000       0.636945        17.3322 
  55   0.0000       0.664275        18.0758 
  56   0.0000       0.676076        18.3970 
  57   0.0000       0.693843        18.8804 
  58   0.0000       0.706585        19.2272 
  59   0.0000       0.716772        19.5044 
  60   0.0000       0.732986        19.9456 
  61   0.0000       0.742166        20.1954 
  62   0.0000       0.787188        21.4205 
  63   0.0000       0.798812        21.7368 
  64   0.0000       0.816396        22.2153 
  65   0.0000       0.868937        23.6450 
  66   0.0000       0.932719        25.3806 
  67   0.0000       0.978828        26.6353 
  68   0.0000       1.018645        27.7187 
  69   0.0000       1.031211        28.0607 
  70   0.0000       1.055234        28.7144 
  71   0.0000       1.125190        30.6180 
  72   0.0000       1.151292        31.3283 
  73   0.0000       1.209161        32.9030 
  74   0.0000       1.225271        33.3413 
  75   0.0000       1.251295        34.0495 
  76   0.0000       1.283358        34.9220 
  77   0.0000       1.313328        35.7375 
  78   0.0000       1.384273        37.6680 
  79   0.0000       1.440584        39.2003 
  80   0.0000       1.472525        40.0695 
  81   0.0000       1.558742        42.4155 
  82   0.0000       1.588910        43.2364 
  83   0.0000       1.603270        43.6272 
  84   0.0000       1.651349        44.9355 
  85   0.0000       1.665237        45.3134 
  86   0.0000       1.674002        45.5519 
  87   0.0000       1.682495        45.7830 
  88   0.0000       1.706239        46.4291 
  89   0.0000       1.762336        47.9556 
  90   0.0000       1.792862        48.7862 
  91   0.0000       1.812246        49.3137 
  92   0.0000       1.849627        50.3309 
  93   0.0000       1.869294        50.8661 
  94   0.0000       1.875527        51.0357 
  95   0.0000       1.893898        51.5356 
  96   0.0000       1.925211        52.3877 
  97   0.0000       1.962843        53.4117 
  98   0.0000       1.980489        53.8919 
  99   0.0000       2.035712        55.3945 
 100   0.0000       2.052651        55.8555 
 101   0.0000       2.067538        56.2606 
 102   0.0000       2.103734        57.2455 
 103   0.0000       2.131847        58.0105 
 104   0.0000       2.195061        59.7306 
 105   0.0000       2.224785        60.5395 
 106   0.0000       2.272730        61.8441 
 107   0.0000       2.282063        62.0981 
 108   0.0000       2.364559        64.3429 
 109   0.0000       2.400297        65.3154 
 110   0.0000       2.414341        65.6975 
 111   0.0000       2.442198        66.4556 
 112   0.0000       2.465494        67.0895 
 113   0.0000       2.486143        67.6514 
 114   0.0000       2.541039        69.1452 
 115   0.0000       2.623026        71.3762 
 116   0.0000       2.679084        72.9016 
 117   0.0000       2.712092        73.7998 
 118   0.0000       2.758656        75.0669 
 119   0.0000       2.768952        75.3470 
 120   0.0000       2.826737        76.9194 
 121   0.0000       2.844648        77.4068 
 122   0.0000       2.918771        79.4238 
 123   0.0000       2.964877        80.6784 
 124   0.0000       2.994222        81.4769 
 125   0.0000       3.067164        83.4618 
 126   0.0000       3.091686        84.1291 
 127   0.0000       3.132995        85.2531 
 128   0.0000       3.170996        86.2872 
 129   0.0000       3.365384        91.5767 
 130   0.0000       3.434817        93.4661 
 131   0.0000       3.583773        97.5194 
 132   0.0000       3.876002       105.4714 

                 SPIN DOWN ORBITALS
  NO   OCC          E(Eh)            E(eV) 
   0   1.0000     -19.250276      -523.8266 
   1   1.0000     -19.246690      -523.7291 
   2   1.0000     -10.288097      -279.9533 
   3   1.0000     -10.243757      -278.7468 
   4   1.0000     -10.235995      -278.5356 
   5   1.0000     -10.234695      -278.5002 
   6   1.0000     -10.234086      -278.4836 
   7   1.0000      -1.111778       -30.2530 
   8   1.0000      -0.930079       -25.3087 
   9   1.0000      -0.839686       -22.8490 
  10   1.0000      -0.724949       -19.7269 
  11   1.0000      -0.692687       -18.8490 
  12   1.0000      -0.575087       -15.6489 
  13   1.0000      -0.554561       -15.0904 
  14   1.0000      -0.534558       -14.5461 
  15   1.0000      -0.506743       -13.7892 
  16   1.0000      -0.491386       -13.3713 
  17   1.0000      -0.440167       -11.9775 
  18   1.0000      -0.403714       -10.9856 
  19   1.0000      -0.396835       -10.7984 
  20   1.0000      -0.384499       -10.4628 
  21   1.0000      -0.372190       -10.1278 
  22   1.0000      -0.355943        -9.6857 
  23   1.0000      -0.340025        -9.2526 
  24   1.0000      -0.294101        -8.0029 
  25   1.0000      -0.245257        -6.6738 
  26   0.0000      -0.066916        -1.8209 
  27   0.0000       0.033297         0.9061 
  28   0.0000       0.070826         1.9273 
  29   0.0000       0.089415         2.4331 
  30   0.0000       0.101870         2.7720 
  31   0.0000       0.120267         3.2726 
  32   0.0000       0.131644         3.5822 
  33   0.0000       0.142708         3.8833 
  34   0.0000       0.149498         4.0681 
  35   0.0000       0.158461         4.3119 
  36   0.0000       0.202121         5.5000 
  37   0.0000       0.214188         5.8284 
  38   0.0000       0.218489         5.9454 
  39   0.0000       0.285170         7.7599 
  40   0.0000       0.347047         9.4436 
  41   0.0000       0.385926        10.5016 
  42   0.0000       0.398450        10.8424 
  43   0.0000       0.453953        12.3527 
  44   0.0000       0.476006        12.9528 
  45   0.0000       0.497153        13.5282 
  46   0.0000       0.520983        14.1767 
  47   0.0000       0.529774        14.4159 
  48   0.0000       0.552732        15.0406 
  49   0.0000       0.590409        16.0659 
  50   0.0000       0.600627        16.3439 
  51   0.0000       0.610406        16.6100 
  52   0.0000       0.630009        17.1434 
  53   0.0000       0.641136        17.4462 
  54   0.0000       0.648586        17.6489 
  55   0.0000       0.674079        18.3426 
  56   0.0000       0.679302        18.4847 
  57   0.0000       0.695041        18.9130 
  58   0.0000       0.710758        19.3407 
  59   0.0000       0.721269        19.6267 
  60   0.0000       0.737942        20.0804 
  61   0.0000       0.744766        20.2661 
  62   0.0000       0.793223        21.5847 
  63   0.0000       0.802946        21.8493 
  64   0.0000       0.821857        22.3639 
  65   0.0000       0.872254        23.7352 
  66   0.0000       0.934895        25.4398 
  67   0.0000       0.983954        26.7748 
  68   0.0000       1.022420        27.8215 
  69   0.0000       1.036131        28.1946 
  70   0.0000       1.059957        28.8429 
  71   0.0000       1.128100        30.6971 
  72   0.0000       1.154626        31.4190 
  73   0.0000       1.212225        32.9863 
  74   0.0000       1.230073        33.4720 
  75   0.0000       1.256331        34.1865 
  76   0.0000       1.292845        35.1801 
  77   0.0000       1.316630        35.8273 
  78   0.0000       1.388684        37.7880 
  79   0.0000       1.441498        39.2251 
  80   0.0000       1.475782        40.1581 
  81   0.0000       1.569479        42.7077 
  82   0.0000       1.593907        43.3724 
  83   0.0000       1.607183        43.7337 
  84   0.0000       1.653240        44.9869 
  85   0.0000       1.671808        45.4922 
  86   0.0000       1.678144        45.6646 
  87   0.0000       1.685686        45.8698 
  88   0.0000       1.710817        46.5537 
  89   0.0000       1.765423        48.0396 
  90   0.0000       1.798479        48.9391 
  91   0.0000       1.816978        49.4425 
  92   0.0000       1.857830        50.5541 
  93   0.0000       1.877538        51.0904 
  94   0.0000       1.882645        51.2294 
  95   0.0000       1.904551        51.8255 
  96   0.0000       1.936563        52.6966 
  97   0.0000       1.971909        53.6584 
  98   0.0000       1.988798        54.1180 
  99   0.0000       2.046345        55.6839 
 100   0.0000       2.056288        55.9544 
 101   0.0000       2.073525        56.4235 
 102   0.0000       2.105429        57.2916 
 103   0.0000       2.135858        58.1197 
 104   0.0000       2.196995        59.7833 
 105   0.0000       2.233509        60.7769 
 106   0.0000       2.284299        62.1589 
 107   0.0000       2.293177        62.4005 
 108   0.0000       2.379953        64.7618 
 109   0.0000       2.402353        65.3714 
 110   0.0000       2.425300        65.9958 
 111   0.0000       2.450172        66.6726 
 112   0.0000       2.474569        67.3365 
 113   0.0000       2.493153        67.8421 
 114   0.0000       2.548608        69.3511 
 115   0.0000       2.630195        71.5712 
 116   0.0000       2.681178        72.9586 
 117   0.0000       2.715493        73.8923 
 118   0.0000       2.763056        75.1866 
 119   0.0000       2.771024        75.4034 
 120   0.0000       2.829506        76.9948 
 121   0.0000       2.847933        77.4962 
 122   0.0000       2.921448        79.4966 
 123   0.0000       2.965447        80.6939 
 124   0.0000       2.996496        81.5388 
 125   0.0000       3.069114        83.5148 
 126   0.0000       3.094290        84.1999 
 127   0.0000       3.136287        85.3427 
 128   0.0000       3.173348        86.3512 
 129   0.0000       3.366725        91.6132 
 130   0.0000       3.438505        93.5665 
 131   0.0000       3.584457        97.5380 
 132   0.0000       3.877367       105.5085 

                    ********************************
                    * MULLIKEN POPULATION ANALYSIS *
                    ********************************

--------------------------------------------
MULLIKEN ATOMIC CHARGES AND SPIN POPULATIONS
--------------------------------------------
   0 O :   -0.180554    0.021052
   1 O :   -0.285792    0.019293
   2 C :    0.061049   -0.042607
   3 C :   -0.025898    0.685880
   4 C :   -0.000061   -0.335200
   5 C :   -0.065237    0.728991
   6 C :    0.051593   -0.056567
   7 H :    0.196036    0.000110
   8 H :    0.040866    0.001750
   9 H :    0.041441   -0.032716
  10 H :    0.028659    0.012204
  11 H :    0.012688   -0.034422
  12 H :    0.061922    0.027176
  13 H :    0.063287    0.005054
Sum of atomic charges         :   -0.0000000
Sum of atomic spin populations:    1.0000000

-----------------------------------------------------
MULLIKEN REDUCED ORBITAL CHARGES AND SPIN POPULATIONS
-----------------------------------------------------
CHARGE
  0 O s       :     3.787993  s :     3.787993
      pz      :     1.403737  p :     4.376094
      px      :     1.413771
      py      :     1.558586
      dz2     :     0.005611  d :     0.016467
      dxz     :     0.001697
      dyz     :     0.001882
      dx2y2   :     0.002607
      dxy     :     0.004669
  1 O s       :     3.872061  s :     3.872061
      pz      :     1.485888  p :     4.393576
      px      :     1.363958
      py      :     1.543729
      dz2     :     0.005852  d :     0.020155
      dxz     :     0.002775
      dyz     :     0.002848
      dx2y2   :     0.002875
      dxy     :     0.005805
  2 C s       :     3.150129  s :     3.150129
      pz      :     0.761145  p :     2.721293
      px      :     0.987571
      py      :     0.972577
      dz2     :     0.016052  d :     0.067529
      dxz     :     0.014635
      dyz     :     0.017066
      dx2y2   :     0.007684
      dxy     :     0.012092
  3 C s       :     3.208180  s :     3.208180
      pz      :     1.000496  p :     2.786076
      px      :     0.926391
      py      :     0.859189
      dz2     :     0.002498  d :     0.031643
      dxz     :     0.004280
      dyz     :     0.005047
      dx2y2   :     0.009562
      dxy     :     0.010256
  4 C s       :     3.168898  s :     3.168898
      pz      :     0.959948  p :     2.794176
      px      :     0.882447
      py      :     0.951782
      dz2     :     0.003548  d :     0.036986
      dxz     :     0.005445
      dyz     :     0.007054
      dx2y2   :     0.010912
      dxy     :     0.010027
  5 C s       :     3.228440  s :     3.228440
      pz      :     0.946191  p :     2.803727
      px      :     0.958278
      py      :     0.899259
      dz2     :     0.005033  d :     0.033069
      dxz     :     0.004359
      dyz     :     0.004946
      dx2y2   :     0.008318
      dxy     :     0.010413
  6 C s       :     3.003299  s :     3.003299
      pz      :     0.958392  p :     2.911123
      px      :     0.940635
      py      :     1.012096
      dz2     :     0.008825  d :     0.033985
      dxz     :     0.005868
      dyz     :     0.004530
      dx2y2   :     0.006460
      dxy     :     0.008301
  7 H s       :     0.738490  s :     0.738490
      pz      :     0.034885  p :     0.065474
      px      :     0.012815
      py      :     0.017774
  8 H s       :     0.938394  s :     0.938394
      pz      :     0.004250  p :     0.020740
      px      :     0.010796
      py      :     0.005694
  9 H s       :     0.934410  s :     0.934410
      pz      :     0.006683  p :     0.024149
      px      :     0.003220
      py      :     0.014247
 10 H s       :     0.947847  s :     0.947847
      pz      :     0.006359  p :     0.023494
      px      :     0.013240
      py      :     0.003895
 11 H s       :     0.961383  s :     0.961383
      pz      :     0.005466  p :     0.025928
      px      :     0.007822
      py      :     0.012641
 12 H s       :     0.915150  s :     0.915150
      pz      :     0.013896  p :     0.022928
      px      :     0.004660
      py      :     0.004372
 13 H s       :     0.913024  s :     0.913024
      pz      :     0.004720  p :     0.023688
      px      :     0.008414
      py      :     0.010554

SPIN
  0 O s       :     0.000377  s :     0.000377
      pz      :     0.000527  p :     0.020648
      px      :     0.005955
      py      :     0.014166
      dz2     :    -0.000006  d :     0.000027
      dxz     :     0.000028
      dyz     :     0.000020
      dx2y2   :     0.000007
      dxy     :    -0.000023
  1 O s       :     0.003440  s :     0.003440
      pz      :     0.016510  p :     0.015426
      px      :     0.003337
      py      :    -0.004421
      dz2     :     0.000109  d :     0.000428
      dxz     :     0.000012
      dyz     :     0.000010
      dx2y2   :     0.000003
      dxy     :     0.000294
  2 C s       :    -0.012887  s :    -0.012887
      pz      :    -0.009016  p :    -0.033497
      px      :    -0.017121
      py      :    -0.007360
      dz2     :    -0.000128  d :     0.003777
      dxz     :     0.002163
      dyz     :     0.001621
      dx2y2   :     0.000051
      dxy     :     0.000071
  3 C s       :     0.095560  s :     0.095560
      pz      :     0.473983  p :     0.593143
      px      :     0.051249
      py      :     0.067911
      dz2     :    -0.001021  d :    -0.002822
      dxz     :    -0.000462
      dyz     :    -0.000932
      dx2y2   :    -0.000228
      dxy     :    -0.000179
  4 C s       :    -0.059574  s :    -0.059574
      pz      :    -0.180124  p :    -0.283943
      px      :    -0.045309
      py      :    -0.058509
      dz2     :     0.000986  d :     0.008317
      dxz     :     0.001417
      dyz     :     0.004392
      dx2y2   :     0.000746
      dxy     :     0.000776
  5 C s       :     0.094705  s :     0.094705
      pz      :     0.443970  p :     0.636849
      px      :     0.127870
      py      :     0.065009
      dz2     :    -0.000816  d :    -0.002563
      dxz     :    -0.000589
      dyz     :    -0.000722
      dx2y2   :    -0.000238
      dxy     :    -0.000198
  6 C s       :    -0.017308  s :    -0.017308
      pz      :    -0.012744  p :    -0.042617
      px      :    -0.025431
      py      :    -0.004443
      dz2     :     0.001961  d :     0.003358
      dxz     :     0.000653
      dyz     :     0.000343
      dx2y2   :     0.000278
      dxy     :     0.000123
  7 H s       :    -0.000180  s :    -0.000180
      pz      :     0.000034  p :     0.000291
      px      :     0.000096
      py      :     0.000160
  8 H s       :     0.001815  s :     0.001815
      pz      :    -0.000026  p :    -0.000065
      px      :    -0.000067
      py      :     0.000027
  9 H s       :    -0.036189  s :    -0.036189
      pz      :     0.002742  p :     0.003473
      px      :     0.000060
      py      :     0.000671
 10 H s       :     0.013382  s :     0.013382
      pz      :    -0.000868  p :    -0.001178
      px      :    -0.000199
      py      :    -0.000111
 11 H s       :    -0.038877  s :    -0.038877
      pz      :     0.003084  p :     0.004455
      px      :     0.000859
      py      :     0.000511
 12 H s       :     0.027327  s :     0.027327
      pz      :    -0.000239  p :    -0.000150
      px      :     0.000061
      py      :     0.000028
 13 H s       :     0.005094  s :     0.005094
      pz      :    -0.000060  p :    -0.000040
      px      :    -0.000053
      py      :     0.000073


                     *******************************
                     * LOEWDIN POPULATION ANALYSIS *
                     *******************************

-------------------------------------------
LOEWDIN ATOMIC CHARGES AND SPIN POPULATIONS
-------------------------------------------
   0 O :   -0.089239    0.018560
   1 O :   -0.117391    0.027225
   2 C :    0.061443    0.002136
   3 C :   -0.031451    0.535626
   4 C :   -0.032737   -0.184534
   5 C :    0.009351    0.578184
   6 C :   -0.052398   -0.007963
   7 H :    0.082684    0.000840
   8 H :    0.018886    0.001383
   9 H :    0.028476   -0.001161
  10 H :    0.031888    0.000986
  11 H :    0.013079    0.002453
  12 H :    0.041079    0.021537
  13 H :    0.036329    0.004728

----------------------------------------------------
LOEWDIN REDUCED ORBITAL CHARGES AND SPIN POPULATIONS
----------------------------------------------------
CHARGE
  0 O s       :     3.568560  s :     3.568560
      pz      :     1.486417  p :     4.491738
      px      :     1.440180
      py      :     1.565141
      dz2     :     0.010754  d :     0.028941
      dxz     :     0.002088
      dyz     :     0.003525
      dx2y2   :     0.004599
      dxy     :     0.007976
  1 O s       :     3.609082  s :     3.609082
      pz      :     1.524618  p :     4.474305
      px      :     1.389612
      py      :     1.560075
      dz2     :     0.009494  d :     0.034004
      dxz     :     0.004518
      dyz     :     0.004787
      dx2y2   :     0.005217
      dxy     :     0.009988
  2 C s       :     2.869707  s :     2.869707
      pz      :     0.864354  p :     2.915526
      px      :     1.035361
      py      :     1.015811
      dz2     :     0.034320  d :     0.153324
      dxz     :     0.032891
      dyz     :     0.040375
      dx2y2   :     0.015270
      dxy     :     0.030468
  3 C s       :     2.900220  s :     2.900220
      pz      :     0.985267  p :     3.051475
      px      :     1.027355
      py      :     1.038853
      dz2     :     0.005681  d :     0.079755
      dxz     :     0.009803
      dyz     :     0.009835
      dx2y2   :     0.024155
      dxy     :     0.030281
  4 C s       :     2.873511  s :     2.873511
      pz      :     0.973240  p :     3.063095
      px      :     1.038545
      py      :     1.051311
      dz2     :     0.007762  d :     0.096131
      dxz     :     0.012043
      dyz     :     0.017821
      dx2y2   :     0.029497
      dxy     :     0.029008
  5 C s       :     2.890140  s :     2.890140
      pz      :     0.960533  p :     3.019424
      px      :     1.009068
      py      :     1.049824
      dz2     :     0.010053  d :     0.081085
      dxz     :     0.009841
      dyz     :     0.012021
      dx2y2   :     0.024106
      dxy     :     0.025063
  6 C s       :     2.848528  s :     2.848528
      pz      :     1.042322  p :     3.116221
      px      :     1.024571
      py      :     1.049327
      dz2     :     0.023362  d :     0.087650
      dxz     :     0.014551
      dyz     :     0.011632
      dx2y2   :     0.017298
      dxy     :     0.020806
  7 H s       :     0.744406  s :     0.744406
      pz      :     0.092705  p :     0.172910
      px      :     0.034611
      py      :     0.045594
  8 H s       :     0.913925  s :     0.913925
      pz      :     0.014879  p :     0.067189
      px      :     0.032584
      py      :     0.019725
  9 H s       :     0.897564  s :     0.897564
      pz      :     0.021299  p :     0.073960
      px      :     0.011792
      py      :     0.040869
 10 H s       :     0.899773  s :     0.899773
      pz      :     0.018449  p :     0.068339
      px      :     0.037278
      py      :     0.012612
 11 H s       :     0.905349  s :     0.905349
      pz      :     0.018847  p :     0.081572
      px      :     0.026270
      py      :     0.036455
 12 H s       :     0.891245  s :     0.891245
      pz      :     0.040310  p :     0.067676
      px      :     0.013512
      py      :     0.013855
 13 H s       :     0.893361  s :     0.893361
      pz      :     0.013479  p :     0.070310
      px      :     0.024811
      py      :     0.032019

SPIN
  0 O s       :     0.000549  s :     0.000549
      pz      :     0.000371  p :     0.017962
      px      :     0.004968
      py      :     0.012624
      dz2     :    -0.000017  d :     0.000048
      dxz     :     0.000029
      dyz     :     0.000024
      dx2y2   :    -0.000010
      dxy     :     0.000022
  1 O s       :     0.009187  s :     0.009187
      pz      :     0.015094  p :     0.017219
      px      :     0.003943
      py      :    -0.001818
      dz2     :     0.000057  d :     0.000820
      dxz     :     0.000017
      dyz     :    -0.000006
      dx2y2   :     0.000021
      dxy     :     0.000731
  2 C s       :     0.000360  s :     0.000360
      pz      :    -0.001673  p :    -0.007823
      px      :    -0.004371
      py      :    -0.001780
      dz2     :     0.000114  d :     0.009599
      dxz     :     0.005067
      dyz     :     0.003628
      dx2y2   :     0.000170
      dxy     :     0.000619
  3 C s       :     0.021617  s :     0.021617
      pz      :     0.430426  p :     0.519467
      px      :     0.036275
      py      :     0.052767
      dz2     :    -0.001035  d :    -0.005458
      dxz     :    -0.001164
      dyz     :    -0.001339
      dx2y2   :    -0.001015
      dxy     :    -0.000906
  4 C s       :    -0.011121  s :    -0.011121
      pz      :    -0.139139  p :    -0.193914
      px      :    -0.025651
      py      :    -0.029123
      dz2     :     0.002098  d :     0.020501
      dxz     :     0.003347
      dyz     :     0.010281
      dx2y2   :     0.002259
      dxy     :     0.002516
  5 C s       :     0.021539  s :     0.021539
      pz      :     0.403939  p :     0.561947
      px      :     0.111440
      py      :     0.046568
      dz2     :    -0.001363  d :    -0.005302
      dxz     :    -0.000656
      dyz     :    -0.001527
      dx2y2   :    -0.000883
      dxy     :    -0.000872
  6 C s       :    -0.002533  s :    -0.002533
      pz      :    -0.003570  p :    -0.013960
      px      :    -0.009345
      py      :    -0.001044
      dz2     :     0.004914  d :     0.008530
      dxz     :     0.001572
      dyz     :     0.000838
      dx2y2   :     0.000911
      dxy     :     0.000294
  7 H s       :    -0.000132  s :    -0.000132
      pz      :     0.000072  p :     0.000972
      px      :     0.000319
      py      :     0.000581
  8 H s       :     0.001722  s :     0.001722
      pz      :    -0.000146  p :    -0.000339
      px      :    -0.000211
      py      :     0.000018
  9 H s       :    -0.016177  s :    -0.016177
      pz      :     0.010729  p :     0.015016
      px      :     0.000865
      py      :     0.003422
 10 H s       :     0.006219  s :     0.006219
      pz      :    -0.003380  p :    -0.005234
      px      :    -0.001166
      py      :    -0.000688
 11 H s       :    -0.016220  s :    -0.016220
      pz      :     0.011949  p :     0.018673
      px      :     0.003901
      py      :     0.002824
 12 H s       :     0.022122  s :     0.022122
      pz      :    -0.000455  p :    -0.000585
      px      :    -0.000116
      py      :    -0.000014
 13 H s       :     0.004950  s :     0.004950
      pz      :    -0.000187  p :    -0.000222
      px      :    -0.000118
      py      :     0.000084


                      *****************************
                      * MAYER POPULATION ANALYSIS *
                      *****************************

  NA   - Mulliken gross atomic population
  ZA   - Total nuclear charge
  QA   - Mulliken gross atomic charge
  VA   - Mayer's total valence
  BVA  - Mayer's bonded valence
  FA   - Mayer's free valence

  ATOM       NA         ZA         QA         VA         BVA        FA
  0 O      8.1806     8.0000    -0.1806     1.9794     1.9789     0.0005
  1 O      8.2858     8.0000    -0.2858     1.8714     1.8704     0.0011
  2 C      5.9390     6.0000     0.0610     3.9655     3.9638     0.0017
  3 C      6.0259     6.0000    -0.0259     3.8179     3.5097     0.3082
  4 C      6.0001     6.0000    -0.0001     3.8542     3.8039     0.0503
  5 C      6.0652     6.0000    -0.0652     3.9071     3.5547     0.3524
  6 C      5.9484     6.0000     0.0516     3.8268     3.8251     0.0018
  7 H      0.8040     1.0000     0.1960     0.9985     0.9985     0.0000
  8 H      0.9591     1.0000     0.0409     0.9897     0.9897     0.0000
  9 H      0.9586     1.0000     0.0414     0.9927     0.9914     0.0014
 10 H      0.9713     1.0000     0.0287     0.9856     0.9854     0.0002
 11 H      0.9873     1.0000     0.0127     0.9947     0.9932     0.0015
 12 H      0.9381     1.0000     0.0619     0.9760     0.9753     0.0008
 13 H      0.9367     1.0000     0.0633     1.0096     1.0095     0.0000

  Mayer bond orders larger than 0.100000
B(  0-O ,  1-O ) :   0.9185 B(  0-O ,  7-H ) :   0.9684 B(  1-O ,  2-C ) :   0.8864 
B(  2-C ,  3-C ) :   1.0107 B(  2-C ,  6-C ) :   1.0279 B(  2-C ,  8-H ) :   0.9502 
B(  3-C ,  4-C ) :   1.3796 B(  3-C ,  9-H ) :   0.9923 B(  4-C ,  5-C ) :   1.3979 
B(  4-C , 10-H ) :   0.9915 B(  5-C ,  6-C ) :   0.9915 B(  5-C , 11-H ) :   0.9938 
B(  6-C , 12-H ) :   0.9281 B(  6-C , 13-H ) :   0.9314 


------------------
HIRSHFELD ANALYSIS
------------------

Total integrated alpha density =     27.000021716
Total integrated beta density  =     26.000023375

  ATOM     CHARGE      SPIN    
   0 O   -0.179140    0.018908
   1 O   -0.128899    0.032968
   2 C    0.060928    0.029612
   3 C   -0.033747    0.421241
   4 C   -0.041844   -0.071976
   5 C   -0.014487    0.453693
   6 C   -0.051713    0.027855
   7 H    0.174284    0.001283
   8 H    0.033672    0.003217
   9 H    0.041186    0.027198
  10 H    0.041939   -0.005901
  11 H    0.035544    0.033358
  12 H    0.032434    0.022646
  13 H    0.029798    0.005897

  TOTAL  -0.000045    0.999998

-------
TIMINGS
-------

Total SCF time: 0 days 0 hours 0 min 53 sec 

Total time                  ....      53.750 sec
Sum of individual times     ....      53.596 sec  ( 99.7%)

Fock matrix formation       ....      51.700 sec  ( 96.2%)
  Split-RI-J                ....       3.114 sec  (  6.0% of F)
  Chain of spheres X        ....      35.398 sec  ( 68.5% of F)
  XC integration            ....      13.198 sec  ( 25.5% of F)
    Basis function eval.    ....       3.833 sec  ( 29.0% of XC)
    Density eval.           ....       3.598 sec  ( 27.3% of XC)
    XC-Functional eval.     ....       1.306 sec  (  9.9% of XC)
    XC-Potential eval.      ....       4.157 sec  ( 31.5% of XC)
Diagonalization             ....       0.084 sec  (  0.2%)
Density matrix formation    ....       0.007 sec  (  0.0%)
Population analysis         ....       0.392 sec  (  0.7%)
Initial guess               ....       0.218 sec  (  0.4%)
Orbital Transformation      ....       0.000 sec  (  0.0%)
Orbital Orthonormalization  ....       0.000 sec  (  0.0%)
DIIS solution               ....       0.021 sec  (  0.0%)
Grid generation             ....       1.173 sec  (  2.2%)

Maximum memory used throughout the entire SCF-calculation: 63.6 MB


-------------------------------------------------------------------------------
                          DFT DISPERSION CORRECTION                            
                                                                               
                              DFTD3 V3.1  Rev 1                                
                          USING Becke-Johnson damping                          
-------------------------------------------------------------------------------
The PBE0 functional is recognized
Active option DFTDOPT                   ...         4   

molecular C6(AA) [au] = 1772.244730 


            DFT-D V3
 parameters
 s6 scaling factor         :     1.0000 
 a1 scaling factor         :     0.4145 
 s8 scaling factor         :     1.2177 
 a2 scaling factor         :     4.8593 
 ad hoc parameters k1-k3   :    16.0000     1.3333    -4.0000 

 Edisp/kcal,au: -6.357266871898  -0.010130948546 
 E6   /kcal   :  -4.034526237 
 E8   /kcal   :  -2.322740635 
 % E8         :  36.536780370 

-------------------------   ----------------
Dispersion correction           -0.010130949
-------------------------   ----------------


-------------------------   --------------------
FINAL SINGLE POINT ENERGY      -344.382612956063
-------------------------   --------------------

------------------------------------------------------------------------------
                         ORCA SCF GRADIENT CALCULATION
------------------------------------------------------------------------------

 ... reading COSX grid (gridx3)
Gradient of the Kohn-Sham DFT energy:
Kohn-Sham wavefunction type      ... UKS
Hartree-Fock exchange scaling    ...    0.250
Number of operators              ...    2
Number of atoms                  ...   14
Basis set dimensions             ...  133
Integral neglect threshold       ... 2.5e-11
Integral primitive cutoff        ... 2.5e-12
SHARK Integral package           ... ON

Nuc. rep. gradient       (SHARK) ... done (  0.0 sec)
HCore & Overlap gradient (SHARK) ... done (  0.1 sec)
RI-J gradient            (SHARK) ... done (  0.6 sec)
COSX-gradient                    ... done (  6.9 sec)
Exchange-correlation gradient    ... done
Dispersion correction            ... done

------------------
CARTESIAN GRADIENT
------------------

   1   O   :   -0.008255119   -0.007206717   -0.004370138
   2   O   :    0.016729433    0.000499938    0.003511501
   3   C   :    0.006598116    0.006797554   -0.022449143
   4   C   :   -0.004187226    0.007451554    0.003097857
   5   C   :    0.002339608    0.005721794    0.004741950
   6   C   :    0.024946129   -0.038754083    0.006271080
   7   C   :   -0.013651787    0.004299198   -0.006198173
   8   H   :   -0.002810539   -0.004925204    0.010770075
   9   H   :   -0.001017975   -0.000051022    0.003286794
  10   H   :   -0.000725564    0.000191186    0.000266830
  11   H   :   -0.000833748   -0.002001535   -0.000544175
  12   H   :   -0.021378656    0.028268798    0.000736760
  13   H   :    0.003071473   -0.001577604   -0.000159794
  14   H   :   -0.000928979    0.001273991    0.001119740

Difference to translation invariance:
           :   -0.0001048330   -0.0000121517    0.0000811654

Difference to rotation invariance:
           :    0.0006767891    0.0001089794    0.0001243371

Norm of the cartesian gradient     ...    0.0708061470
RMS gradient                       ...    0.0109256257
MAX gradient                       ...    0.0387540831

-------
TIMINGS
-------

Total SCF gradient time            ...       11.758 sec

One electron gradient       ....       0.099 sec  (  0.8%)
RI-J Coulomb gradient       ....       0.606 sec  (  5.2%)
COSX gradient               ....       6.884 sec  ( 58.5%)
XC gradient                 ....       3.852 sec  ( 32.8%)

Maximum memory used throughout the entire SCFGRAD-calculation: 50.4 MB

                            ***************************************
                            *     ORCA property calculations      *
                            ***************************************

                                    ---------------------
                                    Active property flags
                                    ---------------------
   (+) Dipole Moment


------------------------------------------------------------------------------
                       ORCA ELECTRIC PROPERTIES CALCULATION
------------------------------------------------------------------------------

Dipole Moment Calculation                       ... on
Quadrupole Moment Calculation                   ... off
Polarizability Calculation                      ... off
GBWName                                         ... 4_1_orca.gbw
Electron density                                ... 4_1_orca.scfp
The origin for moment calculation is the CENTER OF MASS  = (-0.341941,  0.026831  0.330478)

-------------
DIPOLE MOMENT
-------------
                                X             Y             Z
Electronic contribution:     -1.38260       0.36516       1.95850
Nuclear contribution   :      1.60371      -0.47885      -1.90446
                        -----------------------------------------
Total Dipole Moment    :      0.22111      -0.11369       0.05404
                        -----------------------------------------
Magnitude (a.u.)       :      0.25443
Magnitude (Debye)      :      0.64671



--------------------
Rotational spectrum 
--------------------
 
Rotational constants in cm-1:     0.172519     0.076147     0.066326 
Rotational constants in MHz :  5172.004405  2282.816198  1988.412619 

 Dipole components along the rotational axes: 
x,y,z [a.u.] :    -0.158241    -0.087435     0.179024 
x,y,z [Debye]:    -0.402217    -0.222242     0.455043 

 

Timings for individual modules:

Sum of individual times         ...       65.731 sec (=   1.096 min)
GTO integral calculation        ...        0.168 sec (=   0.003 min)   0.3 %
SCF iterations                  ...       53.776 sec (=   0.896 min)  81.8 %
SCF Gradient evaluation         ...       11.788 sec (=   0.196 min)  17.9 %
                             ****ORCA TERMINATED NORMALLY****
TOTAL RUN TIME: 0 days 0 hours 1 minutes 5 seconds 889 msec
