
                                 *****************
                                 * O   R   C   A *
                                 *****************

                                            #,                                       
                                            ###                                      
                                            ####                                     
                                            #####                                    
                                            ######                                   
                                           ########,                                 
                                     ,,################,,,,,                         
                               ,,#################################,,                 
                          ,,##########################################,,             
                       ,#########################################, ''#####,          
                    ,#############################################,,   '####,        
                  ,##################################################,,,,####,       
                ,###########''''           ''''###############################       
              ,#####''   ,,,,##########,,,,          '''####'''          '####       
            ,##' ,,,,###########################,,,                        '##       
           ' ,,###''''                  '''############,,,                           
         ,,##''                                '''############,,,,        ,,,,,,###''
      ,#''                                            '''#######################'''  
     '                                                          ''''####''''         
             ,#######,   #######,   ,#######,      ##                                
            ,#'     '#,  ##    ##  ,#'     '#,    #''#        ######   ,####,        
            ##       ##  ##   ,#'  ##            #'  '#       #        #'  '#        
            ##       ##  #######   ##           ,######,      #####,   #    #        
            '#,     ,#'  ##    ##  '#,     ,#' ,#      #,         ##   #,  ,#        
             '#######'   ##     ##  '#######'  #'      '#     #####' # '####'        



                  #######################################################
                  #                        -***-                        #
                  #          Department of theory and spectroscopy      #
                  #    Directorship and core code : Frank Neese         #
                  #        Max Planck Institute fuer Kohlenforschung    #
                  #                Kaiser Wilhelm Platz 1               #
                  #                 D-45470 Muelheim/Ruhr               #
                  #                      Germany                        #
                  #                                                     #
                  #                  All rights reserved                #
                  #                        -***-                        #
                  #######################################################


                         Program Version 5.0.4 -  RELEASE  -


 With contributions from (in alphabetic order):
   Daniel Aravena         : Magnetic Suceptibility
   Michael Atanasov       : Ab Initio Ligand Field Theory (pilot matlab implementation)
   Alexander A. Auer      : GIAO ZORA, VPT2 properties, NMR spectrum
   Ute Becker             : Parallelization
   Giovanni Bistoni       : ED, misc. LED, open-shell LED, HFLD
   Martin Brehm           : Molecular dynamics
   Dmytro Bykov           : SCF Hessian
   Vijay G. Chilkuri      : MRCI spin determinant printing, contributions to CSF-ICE
   Dipayan Datta          : RHF DLPNO-CCSD density
   Achintya Kumar Dutta   : EOM-CC, STEOM-CC
   Dmitry Ganyushin       : Spin-Orbit,Spin-Spin,Magnetic field MRCI
   Miquel Garcia          : C-PCM and meta-GGA Hessian, CC/C-PCM, Gaussian charge scheme
   Yang Guo               : DLPNO-NEVPT2, F12-NEVPT2, CIM, IAO-localization
   Andreas Hansen         : Spin unrestricted coupled pair/coupled cluster methods
   Benjamin Helmich-Paris : MC-RPA, TRAH-SCF, COSX integrals
   Lee Huntington         : MR-EOM, pCC
   Robert Izsak           : Overlap fitted RIJCOSX, COSX-SCS-MP3, EOM
   Marcus Kettner         : VPT2
   Christian Kollmar      : KDIIS, OOCD, Brueckner-CCSD(T), CCSD density, CASPT2, CASPT2-K
   Simone Kossmann        : Meta GGA functionals, TD-DFT gradient, OOMP2, MP2 Hessian
   Martin Krupicka        : Initial AUTO-CI
   Lucas Lang             : DCDCAS
   Marvin Lechner         : AUTO-CI (C++ implementation), FIC-MRCC
   Dagmar Lenk            : GEPOL surface, SMD
   Dimitrios Liakos       : Extrapolation schemes; Compound Job, initial MDCI parallelization
   Dimitrios Manganas     : Further ROCIS development; embedding schemes
   Dimitrios Pantazis     : SARC Basis sets
   Anastasios Papadopoulos: AUTO-CI, single reference methods and gradients
   Taras Petrenko         : DFT Hessian,TD-DFT gradient, ASA, ECA, R-Raman, ABS, FL, XAS/XES, NRVS
   Peter Pinski           : DLPNO-MP2, DLPNO-MP2 Gradient
   Christoph Reimann      : Effective Core Potentials
   Marius Retegan         : Local ZFS, SOC
   Christoph Riplinger    : Optimizer, TS searches, QM/MM, DLPNO-CCSD(T), (RO)-DLPNO pert. Triples
   Tobias Risthaus        : Range-separated hybrids, TD-DFT gradient, RPA, STAB
   Michael Roemelt        : Original ROCIS implementation
   Masaaki Saitow         : Open-shell DLPNO-CCSD energy and density
   Barbara Sandhoefer     : DKH picture change effects
   Avijit Sen             : IP-ROCIS
   Kantharuban Sivalingam : CASSCF convergence, NEVPT2, FIC-MRCI
   Bernardo de Souza      : ESD, SOC TD-DFT
   Georgi Stoychev        : AutoAux, RI-MP2 NMR, DLPNO-MP2 response
   Willem Van den Heuvel  : Paramagnetic NMR
   Boris Wezisla          : Elementary symmetry handling
   Frank Wennmohs         : Technical directorship


 We gratefully acknowledge several colleagues who have allowed us to
 interface, adapt or use parts of their codes:
   Stefan Grimme, W. Hujo, H. Kruse, P. Pracht,  : VdW corrections, initial TS optimization,
                  C. Bannwarth, S. Ehlert          DFT functionals, gCP, sTDA/sTD-DF
   Ed Valeev, F. Pavosevic, A. Kumar             : LibInt (2-el integral package), F12 methods
   Garnet Chan, S. Sharma, J. Yang, R. Olivares  : DMRG
   Ulf Ekstrom                                   : XCFun DFT Library
   Mihaly Kallay                                 : mrcc  (arbitrary order and MRCC methods)
   Jiri Pittner, Ondrej Demel                    : Mk-CCSD
   Frank Weinhold                                : gennbo (NPA and NBO analysis)
   Christopher J. Cramer and Donald G. Truhlar   : smd solvation model
   Lars Goerigk                                  : TD-DFT with DH, B97 family of functionals
   V. Asgeirsson, H. Jonsson                     : NEB implementation
   FAccTs GmbH                                   : IRC, NEB, NEB-TS, DLPNO-Multilevel, CI-OPT
                                                   MM, QMMM, 2- and 3-layer-ONIOM, Crystal-QMMM,
                                                   LR-CPCM, SF, NACMEs, symmetry and pop. for TD-DFT,
                                                   nearIR, NL-DFT gradient (VV10), updates on ESD,
                                                   ML-optimized integration grids
   S Lehtola, MJT Oliveira, MAL Marques          : LibXC Library
   Liviu Ungur et al                             : ANISO software


 Your calculation uses the libint2 library for the computation of 2-el integrals
 For citations please refer to: http://libint.valeyev.net

 Your ORCA version has been built with support for libXC version: 5.1.0
 For citations please refer to: https://tddft.org/programs/libxc/

 This ORCA versions uses:
   CBLAS   interface :  Fast vector & matrix operations
   LAPACKE interface :  Fast linear algebra routines
   SCALAPACK package :  Parallel linear algebra routines
   Shared memory     :  Shared parallel matrices
   BLAS/LAPACK       :  OpenBLAS 0.3.15  USE64BITINT DYNAMIC_ARCH NO_AFFINITY Haswell SINGLE_THREADED
        Core in use  :  Haswell
   Copyright (c) 2011-2014, The OpenBLAS Project


Your calculation utilizes the atom-pairwise dispersion correction
with the Becke-Johnson damping scheme (D3BJ)
Cite in your paper:
S.Grimme, S.Ehrlich, L.Goerigk, J Comput Chem, (2011), 32, 1456–1465 
S.Grimme, J.Antony, S.Ehrlich and H.Krieg, J.Chem.Phys., 132, (2010), 154104 
   

================================================================================

----- Orbital basis set information -----
Your calculation utilizes the basis: def2-SVP
   F. Weigend and R. Ahlrichs, Phys. Chem. Chem. Phys. 7, 3297 (2005).

----- AuxJ basis set information -----
Your calculation utilizes the auxiliary basis: def2/J
   F. Weigend, Phys. Chem. Chem. Phys. 8, 1057 (2006).

================================================================================
                                        WARNINGS
                       Please study these warnings very carefully!
================================================================================


WARNING: Geometry Optimization
  ===> : Switching off AutoStart
         For restart on a previous wavefunction, please use MOREAD

INFO   : the flag for use of the SHARK integral package has been found!

================================================================================
                                       INPUT FILE
================================================================================
NAME = TS_5ZPuRE_ll_ad_2-3_4-5_conf299_opt_orca.inp
|  1> ! LooseOpt PBE0 RIJCOSX D3BJ def2-SVP def2/J 
|  2> %geom Constraints
|  3> { B 2 3 2.2986938436629267 C }
|  4> { B 4 5 2.300001533616262 C }
|  5>     end
|  6> end
|  7> %geom MaxIter 10 end
|  8> %output 
|  9> xyzfile=True 
| 10> end 
| 11> %scf 
| 12> maxiter 250 
| 13> end
| 14> %output
| 15> Print[P_Hirshfeld] = 1
| 16> end
| 17> % maxcore
| 18> 4000
| 19> %pal nprocs 8
| 20> end
| 21> *xyz 0 1
| 22> C    0.51115232   1.46812451  -0.36503599 
| 23> C   -0.90677581   1.33069960  -0.21920693 
| 24> C   -1.57380439   0.70084987  -1.19869202 
| 25> C   -0.58799420  -1.32568914  -0.73712654 
| 26> C    0.67036271  -1.25074323  -0.26009525 
| 27> C    1.29082501   0.82479158   0.51771001 
| 28> H    0.89478937   1.73398742  -1.34086192 
| 29> H   -1.31733166   1.37435628   0.78047876 
| 30> H   -2.61215111   0.43075462  -1.09826714 
| 31> H   -1.18379113   0.69715024  -2.20318778 
| 32> H   -1.40755425  -1.55921371  -0.07916518 
| 33> H   -0.77160020  -1.43416034  -1.79032266 
| 34> H    1.50920342  -1.23397836  -0.93483323 
| 35> H    0.88371449  -1.48332173   0.76698967 
| 36> H    2.35921694   0.75880874   0.39297385 
| 37> H    0.92032848   0.60186363   1.50468234 
| 38> *
| 39> 
| 40>                          ****END OF INPUT****
================================================================================

                       *****************************
                       * Geometry Optimization Run *
                       *****************************

Geometry optimization settings:
Update method            Update   .... BFGS
Choice of coordinates    CoordSys .... Z-matrix Internals
Initial Hessian          InHess   .... Almoef's Model

Convergence Tolerances:
Energy Change            TolE     ....  3.0000e-05 Eh
Max. Gradient            TolMAXG  ....  2.0000e-03 Eh/bohr
RMS Gradient             TolRMSG  ....  5.0000e-04 Eh/bohr
Max. Displacement        TolMAXD  ....  1.0000e-02 bohr
RMS Displacement         TolRMSD  ....  7.0000e-03 bohr
Strict Convergence                ....  False
------------------------------------------------------------------------------
                        ORCA OPTIMIZATION COORDINATE SETUP
------------------------------------------------------------------------------

The optimization will be done in new redundant internal coordinates
Making redundant internal coordinates   ...  (new redundants) done
Evaluating the initial hessian          ...  (Almloef) done
Evaluating the coordinates              ...  done
Calculating the B-matrix                .... done
Calculating the G-matrix                .... done
Diagonalizing the G-matrix              .... done
Imposing constraints:
 Iter   0:  RMS(Cart)=    0.0001547075 RMS(Int)=    0.0023518074
 Iter   1:  RMS(Cart)=    0.0001141154 RMS(Int)=    0.0017347417
 Iter   2:  RMS(Cart)=    0.0000841739 RMS(Int)=    0.0012795816
 Iter   3:  RMS(Cart)=    0.0000620885 RMS(Int)=    0.0009438462
 Iter   4:  RMS(Cart)=    0.0000457978 RMS(Int)=    0.0006962009
 Iter   5:  RMS(Cart)=    0.0000337814 RMS(Int)=    0.0005135325
 Iter   6:  RMS(Cart)=    0.0000249179 RMS(Int)=    0.0003787925
 Iter   7:  RMS(Cart)=    0.0000183800 RMS(Int)=    0.0002794054
 Iter   8:  RMS(Cart)=    0.0000135575 RMS(Int)=    0.0002060954
 Iter   9:  RMS(Cart)=    0.0000100003 RMS(Int)=    0.0001520204
 Iter  10:  RMS(Cart)=    0.0000073764 RMS(Int)=    0.0001121335
 Iter  11:  RMS(Cart)=    0.0000054410 RMS(Int)=    0.0000827121
 Iter  12:  RMS(Cart)=    0.0000040134 RMS(Int)=    0.0000610102
 Iter  13:  RMS(Cart)=    0.0000029604 RMS(Int)=    0.0000450024
 Iter  14:  RMS(Cart)=    0.0000021836 RMS(Int)=    0.0000331948
 Iter  15:  RMS(Cart)=    0.0000016107 RMS(Int)=    0.0000244852
 Iter  16:  RMS(Cart)=    0.0000011881 RMS(Int)=    0.0000180608
 Iter  17:  RMS(Cart)=    0.0000008764 RMS(Int)=    0.0000133220
 Iter  18:  RMS(Cart)=    0.0000006464 RMS(Int)=    0.0000098266
 Iter  19:  RMS(Cart)=    0.0000004768 RMS(Int)=    0.0000072483
 Iter  20:  RMS(Cart)=    0.0000003517 RMS(Int)=    0.0000053465
 Iter  21:  RMS(Cart)=    0.0000002594 RMS(Int)=    0.0000039437
 Iter  22:  RMS(Cart)=    0.0000001914 RMS(Int)=    0.0000029090
 Iter  23:  RMS(Cart)=    0.0000001412 RMS(Int)=    0.0000021457
 Iter  24:  RMS(Cart)=    0.0000001041 RMS(Int)=    0.0000015827
 Iter  25:  RMS(Cart)=    0.0000000768 RMS(Int)=    0.0000011675
 Iter  26:  RMS(Cart)=    0.0000000566 RMS(Int)=    0.0000008611
 Iter  27:  RMS(Cart)=    0.0000000418 RMS(Int)=    0.0000006352
 Iter  28:  RMS(Cart)=    0.0000000308 RMS(Int)=    0.0000004685
 Iter  29:  RMS(Cart)=    0.0000000227 RMS(Int)=    0.0000003456
 Iter  30:  RMS(Cart)=    0.0000000168 RMS(Int)=    0.0000002549
 Iter  31:  RMS(Cart)=    0.0000000124 RMS(Int)=    0.0000001880
 Iter  32:  RMS(Cart)=    0.0000000091 RMS(Int)=    0.0000001387
 Iter  33:  RMS(Cart)=    0.0000000067 RMS(Int)=    0.0000001023
 Iter  34:  RMS(Cart)=    0.0000000050 RMS(Int)=    0.0000000755
CONVERGED
The first mode is                       ....  119
The number of degrees of freedom        ....   42
Storing new coordinates                 .... done

    -----------------------------------------------------------------
                    Redundant Internal Coordinates


    -----------------------------------------------------------------
         Definition                    Initial Value    Approx d2E/dq
    -----------------------------------------------------------------
      1. B(C   1,C   0)                  1.4317         0.535431   
      2. B(C   2,C   1)                  1.3420         0.745214   
      3. B(C   3,C   2)                  2.2987         0.022044 C 
      4. B(C   3,C   1)                  2.7240         0.004631   
      5. B(C   4,C   0)                  2.7245         0.004623   
      6. B(C   4,C   3)                  1.3482         0.729496   
      7. B(C   5,C   4)                  2.3000         0.021938 C 
      8. B(C   5,C   0)                  1.3420         0.745236   
      9. B(H   6,C   0)                  1.0817         0.371235   
     10. B(H   7,C   1)                  1.0816         0.371401   
     11. B(H   8,C   3)                  2.7034         0.000957   
     12. B(H   8,C   2)                  1.0781         0.376897   
     13. B(H   9,C   2)                  1.0779         0.376938   
     14. B(H   9,C   3)                  2.5676         0.001577   
     15. B(H  10,H   8)                  2.5393         0.000336   
     16. B(H  10,C   2)                  2.5268         0.001831   
     17. B(H  10,C   3)                  1.0770         0.378233   
     18. B(H  11,C   2)                  2.3554         0.003437   
     19. B(H  11,C   3)                  1.0748         0.381102   
     20. B(H  11,H   8)                  2.7100         0.000179   
     21. B(H  11,H   9)                  2.2094         0.001127   
     22. B(H  12,C   5)                  2.5283         0.001822   
     23. B(H  12,C   4)                  1.0770         0.378181   
     24. B(H  13,C   5)                  2.3561         0.003428   
     25. B(H  13,C   4)                  1.0747         0.381222   
     26. B(H  14,C   5)                  1.0782         0.376785   
     27. B(H  14,C   4)                  2.7042         0.000955   
     28. B(H  14,H  12)                  2.5407         0.000334   
     29. B(H  14,H  13)                  2.7099         0.000179   
     30. B(H  15,C   5)                  1.0779         0.376975   
     31. B(H  15,C   4)                  2.5701         0.001563   
     32. B(H  15,H  13)                  2.2118         0.001117   
     33. A(C   1,C   0,C   5)          117.5126         0.436994   
     34. A(C   4,C   0,C   5)           57.4565         0.207705   
     35. A(C   5,C   0,H   6)          120.3460         0.366034   
     36. A(C   1,C   0,C   4)           87.6083         0.199146   
     37. A(C   1,C   0,H   6)          117.8261         0.346059   
     38. A(C   4,C   0,H   6)          105.0287         0.176686   
     39. A(C   2,C   1,H   7)          120.3262         0.366060   
     40. A(C   2,C   1,C   3)           57.4165         0.207747   
     41. A(C   0,C   1,C   2)          117.5506         0.436992   
     42. A(C   3,C   1,H   7)          105.0414         0.176726   
     43. A(C   0,C   1,H   7)          117.7924         0.346085   
     44. A(C   0,C   1,C   3)           87.6180         0.199186   
     45. A(C   1,C   2,H   8)          121.8925         0.366982   
     46. A(H   8,C   2,H   9)          115.7683         0.295053   
     47. A(C   1,C   2,C   3)           93.1155         0.258044   
     48. A(C   1,C   2,H   9)          120.1296         0.366989   
     49. A(C   3,C   2,H   8)          100.0191         0.214300   
     50. A(C   3,C   2,H   9)           91.6943         0.214303   
     51. A(C   2,C   3,C   4)          114.9706         0.257230   
     52. A(C   2,C   3,H  11)           79.6077         0.214615   
     53. A(C   1,C   3,C   2)           29.4680         0.142525   
     54. A(C   4,C   3,H  10)          120.4073         0.365866   
     55. A(C   4,C   3,H  11)          120.7852         0.366340   
     56. A(H  10,C   3,H  11)          116.5681         0.295732   
     57. A(C   1,C   3,C   4)           89.2889         0.207175   
     58. A(C   2,C   3,H  10)           89.3175         0.214400   
     59. A(C   1,C   3,H  10)           90.3849         0.177089   
     60. A(C   1,C   3,H  11)          105.3912         0.177240   
     61. A(C   3,C   4,H  12)          120.4066         0.365857   
     62. A(C   3,C   4,H  13)          120.7609         0.366360   
     63. A(H  12,C   4,H  13)          116.6132         0.295740   
     64. A(C   3,C   4,C   5)          114.9258         0.257045   
     65. A(C   5,C   4,H  13)           79.5843         0.214486   
     66. A(C   0,C   4,C   3)           89.2635         0.207133   
     67. A(C   5,C   4,H  12)           89.3307         0.214259   
     68. A(C   0,C   4,C   5)           29.4639         0.142447   
     69. A(C   0,C   4,H  12)           90.3629         0.177055   
     70. A(C   0,C   4,H  13)          105.3704         0.177214   
     71. A(C   0,C   5,H  14)          121.9354         0.366966   
     72. A(C   0,C   5,H  15)          120.1180         0.366997   
     73. A(H  14,C   5,H  15)          115.7335         0.295044   
     74. A(C   0,C   5,C   4)           93.0796         0.257859   
     75. A(C   4,C   5,H  14)           99.9898         0.214154   
     76. A(C   4,C   5,H  15)           91.7730         0.214168   
     77. D(C   2,C   1,C   0,C   5)   -114.7785         0.022801   
     78. D(C   2,C   1,C   0,H   6)     42.0072         0.022801   
     79. D(H   7,C   1,C   0,C   5)     41.9631         0.022801   
     80. D(C   3,C   1,C   0,H   6)     92.9841         0.022801   
     81. D(C   3,C   1,C   0,C   4)    -12.7644         0.022801   
     82. D(H   7,C   1,C   0,H   6)   -161.2512         0.022801   
     83. D(C   3,C   1,C   0,C   5)    -63.8016         0.022801   
     84. D(C   2,C   1,C   0,C   4)    -63.7414         0.022801   
     85. D(H   7,C   1,C   0,C   4)     93.0003         0.022801   
     86. D(H   8,C   2,C   1,C   3)    103.8324         0.052419   
     87. D(H   9,C   2,C   1,C   0)    -26.6701         0.052419   
     88. D(H   9,C   2,C   1,H   7)    177.2025         0.052419   
     89. D(C   3,C   2,C   1,H   7)    -89.0233         0.052419   
     90. D(C   3,C   2,C   1,C   0)     67.1041         0.052419   
     91. D(H   8,C   2,C   1,H   7)     14.8090         0.052419   
     92. D(H   8,C   2,C   1,C   0)    170.9365         0.052419   
     93. D(H   9,C   2,C   1,C   3)    -93.7742         0.052419   
     94. D(C   4,C   3,C   2,H   8)   -154.7263         0.001539   
     95. D(C   4,C   3,C   2,C   1)    -31.5704         0.001539   
     96. D(H  11,C   3,C   2,H   9)    -30.5194         0.001539   
     97. D(H  10,C   3,C   1,C   2)    -87.9310         0.001502   
     98. D(C   4,C   3,C   2,H   9)     88.7298         0.001539   
     99. D(C   4,C   3,C   1,C   0)     26.4949         0.001502   
    100. D(H  11,C   3,C   1,H   7)    146.4917         0.001502   
    101. D(C   1,C   3,C   2,H   8)   -123.1559         0.001539   
    102. D(H  11,C   3,C   2,C   1)   -150.8196         0.001539   
    103. D(H  10,C   3,C   1,H   7)     28.7325         0.001502   
    104. D(H  11,C   3,C   2,H   8)     86.0245         0.001539   
    105. D(C   2,C   3,C   1,H   7)    116.6635         0.001502   
    106. D(C   4,C   3,C   1,H   7)    -91.6726         0.001502   
    107. D(H  10,C   3,C   2,C   1)     91.9908         0.001539   
    108. D(H  10,C   3,C   2,H   8)    -31.1652         0.001539   
    109. D(H  11,C   3,C   1,C   0)    -95.3408         0.001502   
    110. D(H  10,C   3,C   1,C   0)    146.9000         0.001502   
    111. D(H  10,C   3,C   2,H   9)   -147.7091         0.001539   
    112. D(H  11,C   3,C   1,C   2)     29.8283         0.001502   
    113. D(C   1,C   3,C   2,H   9)    120.3002         0.001539   
    114. D(C   2,C   3,C   1,C   0)   -125.1690         0.001502   
    115. D(C   4,C   3,C   1,C   2)    151.6639         0.001502   
    116. D(C   5,C   4,C   3,H  10)    -88.6259         0.060263   
    117. D(C   3,C   4,C   0,C   5)    151.5986         0.001502   
    118. D(C   3,C   4,C   0,C   1)     26.4908         0.001502   
    119. D(C   0,C   4,C   3,H  10)   -103.5766         0.060263   
    120. D(H  12,C   4,C   0,C   5)    -87.9967         0.001502   
    121. D(H  12,C   4,C   0,H   6)     28.6969         0.001502   
    122. D(H  13,C   4,C   3,H  10)      3.9308         0.060263   
    123. D(H  13,C   4,C   0,C   5)     29.7997         0.001502   
    124. D(H  13,C   4,C   0,H   6)    146.4933         0.001502   
    125. D(C   5,C   4,C   0,C   1)   -125.1079         0.001502   
    126. D(C   5,C   4,C   0,H   6)    116.6936         0.001502   
    127. D(H  12,C   4,C   3,H  10)    166.4349         0.060263   
    128. D(H  12,C   4,C   3,H  11)      4.0158         0.060263   
    129. D(H  12,C   4,C   3,C   1)   -103.5361         0.060263   
    130. D(H  13,C   4,C   0,C   1)    -95.3081         0.001502   
    131. D(H  12,C   4,C   3,C   2)    -88.6101         0.060263   
    132. D(H  13,C   4,C   3,H  11)   -158.4883         0.060263   
    133. D(H  13,C   4,C   3,C   1)     93.9598         0.060263   
    134. D(H  12,C   4,C   0,C   1)    146.8954         0.001502   
    135. D(H  13,C   4,C   3,C   2)    108.8858         0.060263   
    136. D(C   0,C   4,C   3,C   2)      1.3784         0.060263   
    137. D(C   0,C   4,C   3,C   1)    -13.5476         0.060263   
    138. D(C   5,C   4,C   3,C   2)     16.3291         0.060263   
    139. D(C   3,C   4,C   0,H   6)    -91.7078         0.001502   
    140. D(C   5,C   4,C   3,H  11)    108.9550         0.060263   
    141. D(C   5,C   4,C   3,C   1)      1.4031         0.060263   
    142. D(C   0,C   4,C   3,H  11)     94.0043         0.060263   
    143. D(H  14,C   5,C   0,C   1)    170.9410         0.052422   
    144. D(H  14,C   5,C   0,H   6)     14.7654         0.052422   
    145. D(H  14,C   5,C   0,C   4)    103.7828         0.052422   
    146. D(H  15,C   5,C   0,C   1)    -26.6852         0.052422   
    147. D(H  15,C   5,C   0,H   6)    177.1392         0.052422   
    148. D(H  15,C   5,C   0,C   4)    -93.8434         0.052422   
    149. D(H  14,C   5,C   4,H  12)    -31.2633         0.001539   
    150. D(C   4,C   5,C   0,H   6)    -89.0174         0.052422   
    151. D(C   0,C   5,C   4,C   3)    -31.6317         0.001539   
    152. D(C   0,C   5,C   4,H  12)     91.9228         0.001539   
    153. D(C   0,C   5,C   4,H  13)   -150.8418         0.001539   
    154. D(C   4,C   5,C   0,C   1)     67.1582         0.052422   
    155. D(H  14,C   5,C   4,C   3)   -154.8177         0.001539   
    156. D(H  14,C   5,C   4,H  13)     85.9722         0.001539   
    157. D(H  14,C   5,C   4,C   0)   -123.1861         0.001539   
    158. D(H  15,C   5,C   4,C   3)     88.6608         0.001539   
    159. D(H  15,C   5,C   4,H  12)   -147.7847         0.001539   
    160. D(H  15,C   5,C   4,H  13)    -30.5493         0.001539   
    161. D(H  15,C   5,C   4,C   0)    120.2925         0.001539   
    -----------------------------------------------------------------

Number of atoms                         .... 16
Number of degrees of freedom            .... 161

         *************************************************************
         *                GEOMETRY OPTIMIZATION CYCLE   1            *
         *************************************************************
---------------------------------
CARTESIAN COORDINATES (ANGSTROEM)
---------------------------------
  C      0.511009    1.467888   -0.365182
  C     -0.906595    1.330475   -0.219098
  C     -1.573347    0.700193   -1.198517
  C     -0.588250   -1.324833   -0.737162
  C      0.670470   -1.249870   -0.259924
  C      1.290484    0.824091    0.517428
  H      0.894636    1.733785   -1.341002
  H     -1.317147    1.374167    0.780587
  H     -2.612350    0.430537   -1.098153
  H     -1.183379    0.697131   -2.203418
  H     -1.407784   -1.558955   -0.078819
  H     -0.771582   -1.433930   -1.790561
  H      1.509385   -1.233636   -0.935133
  H      0.883663   -1.483140    0.767263
  H      2.359451    0.758645    0.392828
  H      0.919926    0.601734    1.504902

----------------------------
CARTESIAN COORDINATES (A.U.)
----------------------------
  NO LB      ZA    FRAG     MASS         X           Y           Z
   0 C     6.0000    0    12.011    0.965667    2.773906   -0.690094
   1 C     6.0000    0    12.011   -1.713216    2.514234   -0.414036
   2 C     6.0000    0    12.011   -2.973194    1.323173   -2.264868
   3 C     6.0000    0    12.011   -1.111632   -2.503572   -1.393035
   4 C     6.0000    0    12.011    1.267004   -2.361913   -0.491184
   5 C     6.0000    0    12.011    2.438662    1.557306    0.977797
   6 H     1.0000    0     1.008    1.690617    3.276380   -2.534127
   7 H     1.0000    0     1.008   -2.489047    2.596800    1.475096
   8 H     1.0000    0     1.008   -4.936626    0.813596   -2.075208
   9 H     1.0000    0     1.008   -2.236262    1.317386   -4.163857
  10 H     1.0000    0     1.008   -2.660327   -2.945998   -0.148947
  11 H     1.0000    0     1.008   -1.458079   -2.709735   -3.383669
  12 H     1.0000    0     1.008    2.852325   -2.331235   -1.767145
  13 H     1.0000    0     1.008    1.669881   -2.802728    1.449917
  14 H     1.0000    0     1.008    4.458717    1.433632    0.742337
  15 H     1.0000    0     1.008    1.738408    1.137112    2.843853

--------------------------------
INTERNAL COORDINATES (ANGSTROEM)
--------------------------------
 C      0   0   0     0.000000000000     0.00000000     0.00000000
 C      1   0   0     1.432016725627     0.00000000     0.00000000
 C      2   1   0     1.342024161649   117.57159089     0.00000000
 C      3   2   1     2.300374922070    93.09637733    67.10529320
 C      4   3   2     1.347827086094   114.96881332   328.43100738
 C      1   2   3     1.342016118707   117.53348889   245.18476655
 H      1   2   3     1.081710089953   117.81523233    41.98573761
 H      2   1   3     1.081588410842   117.78152560   156.75689554
 H      3   2   1     1.077590140791   121.90744511   170.89003648
 H      3   2   1     1.077560096744   120.13794032   333.38508304
 H      4   3   2     1.076626932416    89.28300495    91.99687405
 H      4   3   2     1.074569323798    79.57475945   209.18127485
 H      5   4   3     1.076664357761   120.42800547   271.41971309
 H      5   4   3     1.074483677672   120.77438188   108.84553897
 H      6   1   2     1.077670710781   121.95040585   170.89397512
 H      6   1   2     1.077533725606   120.12648822   333.37026215

---------------------------
INTERNAL COORDINATES (A.U.)
---------------------------
 C      0   0   0     0.000000000000     0.00000000     0.00000000
 C      1   0   0     2.706119430629     0.00000000     0.00000000
 C      2   1   0     2.536058130622   117.57159089     0.00000000
 C      3   2   1     4.347078608052    93.09637733    67.10529320
 C      4   3   2     2.547024068599   114.96881332   328.43100738
 C      1   2   3     2.536042931665   117.53348889   245.18476655
 H      1   2   3     2.044135826311   117.81523233    41.98573761
 H      2   1   3     2.043905886115   117.78152560   156.75689554
 H      3   2   1     2.036350250709   121.90744511   170.89003648
 H      3   2   1     2.036293475689   120.13794032   333.38508304
 H      4   3   2     2.034530050669    89.28300495    91.99687405
 H      4   3   2     2.030641733892    79.57475945   209.18127485
 H      5   4   3     2.034600774323   120.42800547   271.41971309
 H      5   4   3     2.030479886168   120.77438188   108.84553897
 H      6   1   2     2.036502505924   121.95040585   170.89397512
 H      6   1   2     2.036243641460   120.12648822   333.37026215

---------------------
BASIS SET INFORMATION
---------------------
There are 2 groups of distinct atoms

 Group   1 Type C   : 7s4p1d contracted to 3s2p1d pattern {511/31/1}
 Group   2 Type H   : 4s1p contracted to 2s1p pattern {31/1}

Atom   0C    basis set group =>   1
Atom   1C    basis set group =>   1
Atom   2C    basis set group =>   1
Atom   3C    basis set group =>   1
Atom   4C    basis set group =>   1
Atom   5C    basis set group =>   1
Atom   6H    basis set group =>   2
Atom   7H    basis set group =>   2
Atom   8H    basis set group =>   2
Atom   9H    basis set group =>   2
Atom  10H    basis set group =>   2
Atom  11H    basis set group =>   2
Atom  12H    basis set group =>   2
Atom  13H    basis set group =>   2
Atom  14H    basis set group =>   2
Atom  15H    basis set group =>   2
---------------------------------
AUXILIARY/J BASIS SET INFORMATION
---------------------------------
There are 2 groups of distinct atoms

 Group   1 Type C   : 12s5p4d2f1g contracted to 6s4p3d1f1g pattern {711111/2111/211/2/1}
 Group   2 Type H   : 5s2p1d contracted to 3s1p1d pattern {311/2/1}

Atom   0C    basis set group =>   1
Atom   1C    basis set group =>   1
Atom   2C    basis set group =>   1
Atom   3C    basis set group =>   1
Atom   4C    basis set group =>   1
Atom   5C    basis set group =>   1
Atom   6H    basis set group =>   2
Atom   7H    basis set group =>   2
Atom   8H    basis set group =>   2
Atom   9H    basis set group =>   2
Atom  10H    basis set group =>   2
Atom  11H    basis set group =>   2
Atom  12H    basis set group =>   2
Atom  13H    basis set group =>   2
Atom  14H    basis set group =>   2
Atom  15H    basis set group =>   2


           ************************************************************
           *        Program running with 8 parallel MPI-processes     *
           *              working on a common directory               *
           ************************************************************
------------------------------------------------------------------------------
                           ORCA GTO INTEGRAL CALCULATION
                           -- RI-GTO INTEGRALS CHOSEN --
------------------------------------------------------------------------------
------------------------------------------------------------------------------
                   ___                                                        
                  /   \      - P O W E R E D   B Y -                         
                 /     \                                                     
                 |  |  |   _    _      __       _____    __    __             
                 |  |  |  | |  | |    /  \     |  _  \  |  |  /  |          
                  \  \/   | |  | |   /    \    | | | |  |  | /  /          
                 / \  \   | |__| |  /  /\  \   | |_| |  |  |/  /          
                |  |  |   |  __  | /  /__\  \  |    /   |      \           
                |  |  |   | |  | | |   __   |  |    \   |  |\   \          
                \     /   | |  | | |  |  |  |  | |\  \  |  | \   \       
                 \___/    |_|  |_| |__|  |__|  |_| \__\ |__|  \__/        
                                                                              
                      - O R C A' S   B I G   F R I E N D -                    
                                      &                                       
                       - I N T E G R A L  F E E D E R -                       
                                                                              
 v1 FN, 2020, v2 2021                                                         
------------------------------------------------------------------------------


Reading SHARK input file TS_5ZPuRE_ll_ad_2-3_4-5_conf299_opt_orca.SHARKINP.tmp ... ok
----------------------
SHARK INTEGRAL PACKAGE
----------------------

Number of atoms                             ...     16
Number of basis functions                   ...    134
Number of shells                            ...     66
Maximum angular momentum                    ...      2
Integral batch strategy                     ... SHARK/LIBINT Hybrid
RI-J (if used) integral strategy            ... SPLIT-RIJ (Revised 2003 algorithm where possible)
Printlevel                                  ...      1
Contraction scheme used                     ... SEGMENTED contraction
Coulomb Range Separation                    ... NOT USED
Exchange Range Separation                   ... NOT USED
Finite Nucleus Model                        ... NOT USED
Auxiliary Coulomb fitting basis             ... AVAILABLE
   # of basis functions in Aux-J            ...    404
   # of shells in Aux-J                     ...    140
   Maximum angular momentum in Aux-J        ...      4
Auxiliary J/K fitting basis                 ... NOT available
Auxiliary Correlation fitting basis         ... NOT available
Auxiliary 'external' fitting basis          ... NOT available
Integral threshold                          ...     2.500000e-11
Primitive cut-off                           ...     2.500000e-12
Primitive pair pre-selection threshold      ...     2.500000e-12

Calculating pre-screening integrals         ... done (  0.0 sec) Dimension = 66
Organizing shell pair data                  ... done (  0.0 sec)
Shell pair information
Total number of shell pairs                 ...      2211
Shell pairs after pre-screening             ...      2182
Total number of primitive shell pairs       ...      7611
Primitive shell pairs kept                  ...      5898
          la=0 lb=0:    728 shell pairs
          la=1 lb=0:    821 shell pairs
          la=1 lb=1:    252 shell pairs
          la=2 lb=0:    228 shell pairs
          la=2 lb=1:    132 shell pairs
          la=2 lb=2:     21 shell pairs

Calculating one electron integrals          ... done (  0.0 sec)
Calculating RI/J V-Matrix + Cholesky decomp.... done (  0.0 sec)
Calculating Nuclear repulsion               ... done (  0.0 sec) ENN=    226.801934947002 Eh

SHARK setup successfully completed in   0.1 seconds

Maximum memory used throughout the entire GTOINT-calculation: 10.9 MB


           ************************************************************
           *        Program running with 8 parallel MPI-processes     *
           *              working on a common directory               *
           ************************************************************
-------------------------------------------------------------------------------
                                 ORCA SCF
-------------------------------------------------------------------------------

------------
SCF SETTINGS
------------
Hamiltonian:
 Density Functional     Method          .... DFT(GTOs)
 Exchange Functional    Exchange        .... PBE
   PBE kappa parameter   XKappa         ....  0.804000
   PBE mue parameter    XMuePBE         ....  0.219520
 Correlation Functional Correlation     .... PBE
   PBE beta parameter  CBetaPBE         ....  0.066725
 LDA part of GGA corr.  LDAOpt          .... PW91-LDA
 Gradients option       PostSCFGGA      .... off
 Hybrid DFT is turned on
   Fraction HF Exchange ScalHFX         ....  0.250000
   Scaling of DF-GGA-X  ScalDFX         ....  0.750000
   Scaling of DF-GGA-C  ScalDFC         ....  1.000000
   Scaling of DF-LDA-C  ScalLDAC        ....  1.000000
   Perturbative correction              ....  0.000000
   Density functional embedding theory  .... OFF
   NL short-range parameter             ....  6.900000
 RI-approximation to the Coulomb term is turned on
   Number of AuxJ basis functions       .... 404
   RIJ-COSX (HFX calculated with COS-X)).... on


General Settings:
 Integral files         IntName         .... TS_5ZPuRE_ll_ad_2-3_4-5_conf299_opt_orca
 Hartree-Fock type      HFTyp           .... RHF
 Total Charge           Charge          ....    0
 Multiplicity           Mult            ....    1
 Number of Electrons    NEL             ....   46
 Basis Dimension        Dim             ....  134
 Nuclear Repulsion      ENuc            ....    226.8019349470 Eh

Convergence Acceleration:
 DIIS                   CNVDIIS         .... on
   Start iteration      DIISMaxIt       ....    12
   Startup error        DIISStart       ....  0.200000
   # of expansion vecs  DIISMaxEq       ....     5
   Bias factor          DIISBfac        ....   1.050
   Max. coefficient     DIISMaxC        ....  10.000
 Trust-Rad. Augm. Hess. CNVTRAH         .... auto
   Auto Start mean grad. ratio tolernc. ....  1.125000
   Auto Start start iteration           ....    20
   Auto Start num. interpolation iter.  ....    10
   Max. Number of Micro iterations      ....    16
   Max. Number of Macro iterations      .... Maxiter - #DIIS iter
   Number of Davidson start vectors     ....     2
   Converg. threshold I  (grad. norm)   ....   1.000e-05
   Converg. threshold II (energy diff.) ....   1.000e-08
   Grad. Scal. Fac. for Micro threshold ....   0.100
   Minimum threshold for Micro iter.    ....   0.010
   NR start threshold (gradient norm)   ....   0.001
   Initial trust radius                 ....   0.400
   Minimum AH scaling param. (alpha)    ....   1.000
   Maximum AH scaling param. (alpha)    .... 1000.000
   Orbital update algorithm             .... Taylor
   White noise on init. David. guess    .... on
   Maximum white noise                  ....   0.010
   Quad. conv. algorithm                .... NR
 SOSCF                  CNVSOSCF        .... on
   Start iteration      SOSCFMaxIt      ....   150
   Startup grad/error   SOSCFStart      ....  0.003300
 Level Shifting         CNVShift        .... on
   Level shift para.    LevelShift      ....    0.2500
   Turn off err/grad.   ShiftErr        ....    0.0010
 Zerner damping         CNVZerner       .... off
 Static damping         CNVDamp         .... on
   Fraction old density DampFac         ....    0.7000
   Max. Damping (<1)    DampMax         ....    0.9800
   Min. Damping (>=0)   DampMin         ....    0.0000
   Turn off err/grad.   DampErr         ....    0.1000
 Fernandez-Rico         CNVRico         .... off

SCF Procedure:
 Maximum # iterations   MaxIter         ....   250
 SCF integral mode      SCFMode         .... Direct
   Integral package                     .... SHARK and LIBINT hybrid scheme
 Reset frequency        DirectResetFreq ....    20
 Integral Threshold     Thresh          ....  2.500e-11 Eh
 Primitive CutOff       TCut            ....  2.500e-12 Eh

Convergence Tolerance:
 Convergence Check Mode ConvCheckMode   .... Total+1el-Energy
 Convergence forced     ConvForced      .... 0
 Energy Change          TolE            ....  1.000e-08 Eh
 1-El. energy change                    ....  1.000e-05 Eh
 Orbital Gradient       TolG            ....  1.000e-05
 Orbital Rotation angle TolX            ....  1.000e-05
 DIIS Error             TolErr          ....  5.000e-07


Diagonalization of the overlap matrix:
Smallest eigenvalue                        ... 1.878e-03
Time for diagonalization                   ...    0.004 sec
Threshold for overlap eigenvalues          ... 1.000e-08
Number of eigenvalues below threshold      ... 0
Time for construction of square roots      ...    0.002 sec
Total time needed                          ...    0.007 sec

Time for model grid setup =    0.049 sec

------------------------------
INITIAL GUESS: MODEL POTENTIAL
------------------------------
Loading Hartree-Fock densities                     ... done
Calculating cut-offs                               ... done
Initializing the effective Hamiltonian             ... done
Setting up the integral package (SHARK)            ... done
Starting the Coulomb interaction                   ... done (   0.0 sec)
Reading the grid                                   ... done
Mapping shells                                     ... done
Starting the XC term evaluation                    ... done (   0.0 sec)
  promolecular density results
     # of electrons  =     45.995626626
     EX              =    -33.579166039
     EC              =     -1.473922420
     EX+EC           =    -35.053088459
Transforming the Hamiltonian                       ... done (   0.0 sec)
Diagonalizing the Hamiltonian                      ... done (   0.0 sec)
Back transforming the eigenvectors                 ... done (   0.0 sec)
Now organizing SCF variables                       ... done
                      ------------------
                      INITIAL GUESS DONE (   0.1 sec)
                      ------------------
-------------------
DFT GRID GENERATION
-------------------

General Integration Accuracy     IntAcc      ... 4.388
Radial Grid Type                 RadialGrid  ... OptM3 with GC (2021)
Angular Grid (max. ang.)         AngularGrid ... 4 (Lebedev-302)
Angular grid pruning method      GridPruning ... 4 (adaptive)
Weight generation scheme         WeightScheme... Becke
Basis function cutoff            BFCut       ... 1.0000e-11
Integration weight cutoff        WCut        ... 1.0000e-14
Angular grids for H and He will be reduced by one unit
Partially contracted basis set               ... off
Rotationally invariant grid construction     ... off

Total number of grid points                  ...    68198
Total number of batches                      ...     1075
Average number of points per batch           ...       63
Average number of grid points per atom       ...     4262
Time for grid setup =    0.291 sec

--------------------
COSX GRID GENERATION
--------------------

GRIDX 1
-------
General Integration Accuracy     IntAcc      ... 3.816
Radial Grid Type                 RadialGrid  ... OptM3 with GC (2021)
Angular Grid (max. ang.)         AngularGrid ... 1 (Lebedev-50)
Angular grid pruning method      GridPruning ... 4 (adaptive)
Weight generation scheme         WeightScheme... Becke
Basis function cutoff            BFCut       ... 1.0000e-11
Integration weight cutoff        WCut        ... 1.0000e-14
Angular grids for H and He will be reduced by one unit
Partially contracted basis set               ... on
Rotationally invariant grid construction     ... off

Total number of grid points                  ...     8756
Total number of batches                      ...      145
Average number of points per batch           ...       60
Average number of grid points per atom       ...      547
UseSFitting                                  ... on

GRIDX 2
-------
General Integration Accuracy     IntAcc      ... 4.020
Radial Grid Type                 RadialGrid  ... OptM3 with GC (2021)
Angular Grid (max. ang.)         AngularGrid ... 2 (Lebedev-110)
Angular grid pruning method      GridPruning ... 4 (adaptive)
Weight generation scheme         WeightScheme... Becke
Basis function cutoff            BFCut       ... 1.0000e-11
Integration weight cutoff        WCut        ... 1.0000e-14
Angular grids for H and He will be reduced by one unit
Partially contracted basis set               ... on
Rotationally invariant grid construction     ... off

Total number of grid points                  ...    18368
Total number of batches                      ...      295
Average number of points per batch           ...       62
Average number of grid points per atom       ...     1148
UseSFitting                                  ... on

GRIDX 3
-------
General Integration Accuracy     IntAcc      ... 4.338
Radial Grid Type                 RadialGrid  ... OptM3 with GC (2021)
Angular Grid (max. ang.)         AngularGrid ... 3 (Lebedev-194)
Angular grid pruning method      GridPruning ... 4 (adaptive)
Weight generation scheme         WeightScheme... Becke
Basis function cutoff            BFCut       ... 1.0000e-11
Integration weight cutoff        WCut        ... 1.0000e-14
Angular grids for H and He will be reduced by one unit
Partially contracted basis set               ... on
Rotationally invariant grid construction     ... off

Total number of grid points                  ...    40100
Total number of batches                      ...      635
Average number of points per batch           ...       63
Average number of grid points per atom       ...     2506
UseSFitting                                  ... on

Time for X-Grid setup             =    0.223 sec

--------------
SCF ITERATIONS
--------------
ITER       Energy         Delta-E        Max-DP      RMS-DP      [F,P]     Damp
               ***  Starting incremental Fock matrix formation  ***
  0   -233.8789432476   0.000000000000 0.06356894  0.00235270  0.1502275 0.7000
  1   -233.9566422266  -0.077698978951 0.04076265  0.00169365  0.0826478 0.7000
                               ***Turning on DIIS***
  2   -233.9914521518  -0.034809925202 0.06205483  0.00293955  0.0349624 0.0000
  3   -234.0401613917  -0.048709239897 0.02854670  0.00122491  0.0413028 0.0000
  4   -234.0531202061  -0.012958814459 0.00542896  0.00027603  0.0073953 0.0000
                      *** Initiating the SOSCF procedure ***
                           *** Shutting down DIIS ***
                      *** Re-Reading the Fockian *** 
                      *** Removing any level shift *** 
ITER      Energy       Delta-E        Grad      Rot      Max-DP    RMS-DP
  5   -234.05366609  -0.0005458789  0.000665  0.000665  0.001593  0.000094
               *** Restarting incremental Fock matrix formation ***
  6   -234.05371696  -0.0000508746  0.000344  0.001567  0.001061  0.000060
  7   -234.05371824  -0.0000012786  0.000241  0.000547  0.000630  0.000020
  8   -234.05372037  -0.0000021321  0.000084  0.000232  0.000284  0.000012
  9   -234.05372032   0.0000000477  0.000099  0.000146  0.000146  0.000006
 10   -234.05372054  -0.0000002176  0.000007  0.000028  0.000021  0.000001
 11   -234.05372054   0.0000000020  0.000004  0.000006  0.000010  0.000000
                  ***Gradient check signals convergence***
              ***Rediagonalizing the Fockian in SOSCF/NRSCF***

               *****************************************************
               *                     SUCCESS                       *
               *           SCF CONVERGED AFTER  12 CYCLES          *
               *****************************************************

Old exchange energy                            =     -8.635101872 Eh
New exchange energy                            =     -8.635103099 Eh
Exchange energy change after final integration =     -0.000001227 Eh
Total energy after final integration           =   -234.053721768 Eh
Final COS-X integration done in                =     0.736 sec

----------------
TOTAL SCF ENERGY
----------------

Total Energy       :         -234.05372177 Eh           -6368.92556 eV

Components:
Nuclear Repulsion  :          226.80193495 Eh            6171.59441 eV
Electronic Energy  :         -460.85565672 Eh          -12540.51997 eV
One Electron Energy:         -762.84992695 Eh          -20758.20184 eV
Two Electron Energy:          301.99427024 Eh            8217.68187 eV
Max COSX asymmetry :            0.00000153 Eh               0.00004 eV

Virial components:
Potential Energy   :         -465.78326290 Eh          -12674.60695 eV
Kinetic Energy     :          231.72954113 Eh            6305.68139 eV
Virial Ratio       :            2.01002971


DFT components:
N(Alpha)           :       23.000002157730 electrons
N(Beta)            :       23.000002157730 electrons
N(Total)           :       46.000004315459 electrons
E(X)               :      -25.792852820627 Eh       
E(C)               :       -1.490209984707 Eh       
E(XC)              :      -27.283062805333 Eh       
DFET-embed. en.    :        0.000000000000 Eh       

---------------
SCF CONVERGENCE
---------------

  Last Energy change         ...   -2.9231e-09  Tolerance :   1.0000e-08
  Last MAX-Density change    ...    1.3323e-15  Tolerance :   1.0000e-07
  Last RMS-Density change    ...    4.1505e-17  Tolerance :   5.0000e-09
  Last Orbital Gradient      ...    9.8505e-07  Tolerance :   1.0000e-05
  Last Orbital Rotation      ...    1.8423e-06  Tolerance :   1.0000e-05

             **** THE GBW FILE WAS UPDATED (TS_5ZPuRE_ll_ad_2-3_4-5_conf299_opt_orca.gbw) ****
             **** DENSITY TS_5ZPuRE_ll_ad_2-3_4-5_conf299_opt_orca.scfp WAS UPDATED ****
             **** ENERGY FILE WAS UPDATED (TS_5ZPuRE_ll_ad_2-3_4-5_conf299_opt_orca.en.tmp) ****
             **** THE GBW FILE WAS UPDATED (TS_5ZPuRE_ll_ad_2-3_4-5_conf299_opt_orca.gbw) ****
             **** DENSITY TS_5ZPuRE_ll_ad_2-3_4-5_conf299_opt_orca.scfp WAS UPDATED ****
----------------
ORBITAL ENERGIES
----------------

  NO   OCC          E(Eh)            E(eV) 
   0   2.0000     -10.238379      -278.6005 
   1   2.0000     -10.238331      -278.5992 
   2   2.0000     -10.228219      -278.3240 
   3   2.0000     -10.227857      -278.3141 
   4   2.0000     -10.217217      -278.0246 
   5   2.0000     -10.216529      -278.0059 
   6   2.0000      -0.836826       -22.7712 
   7   2.0000      -0.758982       -20.6529 
   8   2.0000      -0.749859       -20.4047 
   9   2.0000      -0.618315       -16.8252 
  10   2.0000      -0.588079       -16.0025 
  11   2.0000      -0.562987       -15.3197 
  12   2.0000      -0.479001       -13.0343 
  13   2.0000      -0.476465       -12.9653 
  14   2.0000      -0.471635       -12.8338 
  15   2.0000      -0.429194       -11.6790 
  16   2.0000      -0.412815       -11.2333 
  17   2.0000      -0.395507       -10.7623 
  18   2.0000      -0.365136        -9.9359 
  19   2.0000      -0.349319        -9.5054 
  20   2.0000      -0.346733        -9.4351 
  21   2.0000      -0.254008        -6.9119 
  22   2.0000      -0.222356        -6.0506 
  23   0.0000      -0.002868        -0.0780 
  24   0.0000       0.015164         0.4126 
  25   0.0000       0.077022         2.0959 
  26   0.0000       0.080470         2.1897 
  27   0.0000       0.088819         2.4169 
  28   0.0000       0.108375         2.9490 
  29   0.0000       0.128567         3.4985 
  30   0.0000       0.138586         3.7711 
  31   0.0000       0.161208         4.3867 
  32   0.0000       0.168079         4.5737 
  33   0.0000       0.170635         4.6432 
  34   0.0000       0.182786         4.9739 
  35   0.0000       0.222869         6.0646 
  36   0.0000       0.282291         7.6815 
  37   0.0000       0.333190         9.0666 
  38   0.0000       0.333755         9.0819 
  39   0.0000       0.355162         9.6645 
  40   0.0000       0.408986        11.1291 
  41   0.0000       0.433890        11.8067 
  42   0.0000       0.442661        12.0454 
  43   0.0000       0.464163        12.6305 
  44   0.0000       0.465970        12.6797 
  45   0.0000       0.483702        13.1622 
  46   0.0000       0.492112        13.3911 
  47   0.0000       0.540484        14.7073 
  48   0.0000       0.557332        15.1658 
  49   0.0000       0.577949        15.7268 
  50   0.0000       0.608450        16.5568 
  51   0.0000       0.621075        16.9003 
  52   0.0000       0.661362        17.9966 
  53   0.0000       0.670663        18.2497 
  54   0.0000       0.676058        18.3965 
  55   0.0000       0.689423        18.7602 
  56   0.0000       0.691719        18.8226 
  57   0.0000       0.711479        19.3603 
  58   0.0000       0.721210        19.6251 
  59   0.0000       0.723697        19.6928 
  60   0.0000       0.724260        19.7081 
  61   0.0000       0.741442        20.1757 
  62   0.0000       0.751792        20.4573 
  63   0.0000       0.763418        20.7737 
  64   0.0000       0.773183        21.0394 
  65   0.0000       0.793640        21.5960 
  66   0.0000       0.843510        22.9531 
  67   0.0000       0.855623        23.2827 
  68   0.0000       0.893959        24.3259 
  69   0.0000       0.983369        26.7588 
  70   0.0000       1.021254        27.7897 
  71   0.0000       1.051058        28.6007 
  72   0.0000       1.147869        31.2351 
  73   0.0000       1.181763        32.1574 
  74   0.0000       1.235319        33.6147 
  75   0.0000       1.286974        35.0204 
  76   0.0000       1.319854        35.9151 
  77   0.0000       1.340200        36.4687 
  78   0.0000       1.347512        36.6677 
  79   0.0000       1.380255        37.5586 
  80   0.0000       1.409374        38.3510 
  81   0.0000       1.478052        40.2198 
  82   0.0000       1.635050        44.4920 
  83   0.0000       1.651576        44.9417 
  84   0.0000       1.659081        45.1459 
  85   0.0000       1.667715        45.3808 
  86   0.0000       1.673231        45.5309 
  87   0.0000       1.730333        47.0848 
  88   0.0000       1.769335        48.1461 
  89   0.0000       1.776027        48.3281 
  90   0.0000       1.782579        48.5064 
  91   0.0000       1.790171        48.7130 
  92   0.0000       1.801326        49.0166 
  93   0.0000       1.805121        49.1198 
  94   0.0000       1.817808        49.4651 
  95   0.0000       1.826467        49.7007 
  96   0.0000       1.858623        50.5757 
  97   0.0000       1.880789        51.1789 
  98   0.0000       1.882414        51.2231 
  99   0.0000       1.946794        52.9750 
 100   0.0000       1.987614        54.0857 
 101   0.0000       2.015676        54.8493 
 102   0.0000       2.031464        55.2789 
 103   0.0000       2.092864        56.9497 
 104   0.0000       2.103231        57.2318 
 105   0.0000       2.134219        58.0750 
 106   0.0000       2.177525        59.2535 
 107   0.0000       2.204268        59.9812 
 108   0.0000       2.264386        61.6171 
 109   0.0000       2.272191        61.8295 
 110   0.0000       2.282026        62.0971 
 111   0.0000       2.283494        62.1370 
 112   0.0000       2.375436        64.6389 
 113   0.0000       2.405683        65.4620 
 114   0.0000       2.417085        65.7722 
 115   0.0000       2.452200        66.7277 
 116   0.0000       2.479201        67.4625 
 117   0.0000       2.485416        67.6316 
 118   0.0000       2.535627        68.9979 
 119   0.0000       2.576760        70.1172 
 120   0.0000       2.658698        72.3469 
 121   0.0000       2.773876        75.4810 
 122   0.0000       2.780999        75.6748 
 123   0.0000       2.799880        76.1886 
 124   0.0000       2.853923        77.6592 
 125   0.0000       2.861062        77.8534 
 126   0.0000       2.872386        78.1616 
 127   0.0000       2.922832        79.5343 
 128   0.0000       3.010059        81.9079 
 129   0.0000       3.082169        83.8701 
 130   0.0000       3.149105        85.6915 
 131   0.0000       3.341979        90.9399 
 132   0.0000       3.350450        91.1704 
 133   0.0000       3.356103        91.3242 

                    ********************************
                    * MULLIKEN POPULATION ANALYSIS *
                    ********************************

-----------------------
MULLIKEN ATOMIC CHARGES
-----------------------
   0 C :   -0.058524
   1 C :   -0.058668
   2 C :   -0.058033
   3 C :   -0.099870
   4 C :   -0.099889
   5 C :   -0.058213
   6 H :    0.026735
   7 H :    0.026561
   8 H :    0.051048
   9 H :    0.052080
  10 H :    0.042017
  11 H :    0.044815
  12 H :    0.042165
  13 H :    0.044632
  14 H :    0.051104
  15 H :    0.052040
Sum of atomic charges:   -0.0000000

--------------------------------
MULLIKEN REDUCED ORBITAL CHARGES
--------------------------------
  0 C s       :     3.135911  s :     3.135911
      pz      :     0.962671  p :     2.884437
      px      :     0.949981
      py      :     0.971786
      dz2     :     0.009174  d :     0.038175
      dxz     :     0.009961
      dyz     :     0.003698
      dx2y2   :     0.007664
      dxy     :     0.007679
  1 C s       :     3.136284  s :     3.136284
      pz      :     0.958467  p :     2.884211
      px      :     0.955102
      py      :     0.970642
      dz2     :     0.009838  d :     0.038172
      dxz     :     0.010301
      dyz     :     0.004218
      dx2y2   :     0.007519
      dxy     :     0.006296
  2 C s       :     3.101343  s :     3.101343
      pz      :     0.992264  p :     2.926759
      px      :     0.966815
      py      :     0.967680
      dz2     :     0.009912  d :     0.029930
      dxz     :     0.006160
      dyz     :     0.004012
      dx2y2   :     0.006669
      dxy     :     0.003177
  3 C s       :     3.092457  s :     3.092457
      pz      :     0.960487  p :     2.978467
      px      :     0.993147
      py      :     1.024834
      dz2     :     0.007193  d :     0.028945
      dxz     :     0.009680
      dyz     :     0.001241
      dx2y2   :     0.004665
      dxy     :     0.006167
  4 C s       :     3.092376  s :     3.092376
      pz      :     0.962147  p :     2.978576
      px      :     0.995066
      py      :     1.021362
      dz2     :     0.006495  d :     0.028937
      dxz     :     0.010152
      dyz     :     0.001640
      dx2y2   :     0.005414
      dxy     :     0.005236
  5 C s       :     3.101224  s :     3.101224
      pz      :     0.994410  p :     2.927066
      px      :     0.968155
      py      :     0.964501
      dz2     :     0.009180  d :     0.029923
      dxz     :     0.006002
      dyz     :     0.003588
      dx2y2   :     0.007933
      dxy     :     0.003220
  6 H s       :     0.949383  s :     0.949383
      pz      :     0.013361  p :     0.023882
      px      :     0.005018
      py      :     0.005504
  7 H s       :     0.949550  s :     0.949550
      pz      :     0.013800  p :     0.023889
      px      :     0.005287
      py      :     0.004802
  8 H s       :     0.924732  s :     0.924732
      pz      :     0.004429  p :     0.024221
      px      :     0.014807
      py      :     0.004984
  9 H s       :     0.923320  s :     0.923320
      pz      :     0.013922  p :     0.024600
      px      :     0.005903
      py      :     0.004775
 10 H s       :     0.933295  s :     0.933295
      pz      :     0.008419  p :     0.024689
      px      :     0.010531
      py      :     0.005738
 11 H s       :     0.929580  s :     0.929580
      pz      :     0.014844  p :     0.025605
      px      :     0.004706
      py      :     0.006055
 12 H s       :     0.933145  s :     0.933145
      pz      :     0.008645  p :     0.024691
      px      :     0.010787
      py      :     0.005258
 13 H s       :     0.929758  s :     0.929758
      pz      :     0.014406  p :     0.025610
      px      :     0.004664
      py      :     0.006540
 14 H s       :     0.924681  s :     0.924681
      pz      :     0.004504  p :     0.024215
      px      :     0.015324
      py      :     0.004386
 15 H s       :     0.923357  s :     0.923357
      pz      :     0.013609  p :     0.024603
      px      :     0.005741
      py      :     0.005254


                     *******************************
                     * LOEWDIN POPULATION ANALYSIS *
                     *******************************

----------------------
LOEWDIN ATOMIC CHARGES
----------------------
   0 C :   -0.044935
   1 C :   -0.045010
   2 C :   -0.014569
   3 C :   -0.071904
   4 C :   -0.072000
   5 C :   -0.014547
   6 H :    0.027090
   7 H :    0.027042
   8 H :    0.027235
   9 H :    0.028208
  10 H :    0.022056
  11 H :    0.026943
  12 H :    0.022071
  13 H :    0.026905
  14 H :    0.027234
  15 H :    0.028179

-------------------------------
LOEWDIN REDUCED ORBITAL CHARGES
-------------------------------
  0 C s       :     2.866415  s :     2.866415
      pz      :     1.049813  p :     3.082047
      px      :     1.050696
      py      :     0.981538
      dz2     :     0.023646  d :     0.096473
      dxz     :     0.026400
      dyz     :     0.009846
      dx2y2   :     0.018560
      dxy     :     0.018021
  1 C s       :     2.866407  s :     2.866407
      pz      :     1.059594  p :     3.082119
      px      :     1.044808
      py      :     0.977718
      dz2     :     0.026233  d :     0.096484
      dxz     :     0.027238
      dyz     :     0.010767
      dx2y2   :     0.018107
      dxy     :     0.014139
  2 C s       :     2.880390  s :     2.880390
      pz      :     1.064860  p :     3.058247
      px      :     1.034217
      py      :     0.959170
      dz2     :     0.025755  d :     0.075932
      dxz     :     0.016998
      dyz     :     0.010102
      dx2y2   :     0.015200
      dxy     :     0.007877
  3 C s       :     2.879370  s :     2.879370
      pz      :     1.052175  p :     3.118700
      px      :     1.073487
      py      :     0.993038
      dz2     :     0.019387  d :     0.073834
      dxz     :     0.026525
      dyz     :     0.002781
      dx2y2   :     0.012476
      dxy     :     0.012665
  4 C s       :     2.879367  s :     2.879367
      pz      :     1.050044  p :     3.118824
      px      :     1.075023
      py      :     0.993757
      dz2     :     0.017416  d :     0.073809
      dxz     :     0.027990
      dyz     :     0.003557
      dx2y2   :     0.014176
      dxy     :     0.010671
  5 C s       :     2.880399  s :     2.880399
      pz      :     1.052966  p :     3.058230
      px      :     1.048308
      py      :     0.956957
      dz2     :     0.023381  d :     0.075917
      dxz     :     0.016611
      dyz     :     0.009161
      dx2y2   :     0.018810
      dxy     :     0.007955
  6 H s       :     0.902432  s :     0.902432
      pz      :     0.037768  p :     0.070478
      px      :     0.016079
      py      :     0.016631
  7 H s       :     0.902458  s :     0.902458
      pz      :     0.038420  p :     0.070499
      px      :     0.016838
      py      :     0.015241
  8 H s       :     0.901580  s :     0.901580
      pz      :     0.012745  p :     0.071185
      px      :     0.042291
      py      :     0.016150
  9 H s       :     0.900385  s :     0.900385
      pz      :     0.039381  p :     0.071407
      px      :     0.017225
      py      :     0.014800
 10 H s       :     0.905525  s :     0.905525
      pz      :     0.024342  p :     0.072419
      px      :     0.029170
      py      :     0.018908
 11 H s       :     0.898969  s :     0.898969
      pz      :     0.042173  p :     0.074088
      px      :     0.013132
      py      :     0.018783
 12 H s       :     0.905514  s :     0.905514
      pz      :     0.025162  p :     0.072415
      px      :     0.029696
      py      :     0.017556
 13 H s       :     0.898988  s :     0.898988
      pz      :     0.040988  p :     0.074107
      px      :     0.012921
      py      :     0.020197
 14 H s       :     0.901594  s :     0.901594
      pz      :     0.013177  p :     0.071172
      px      :     0.043502
      py      :     0.014492
 15 H s       :     0.900415  s :     0.900415
      pz      :     0.038753  p :     0.071406
      px      :     0.016494
      py      :     0.016158


                      *****************************
                      * MAYER POPULATION ANALYSIS *
                      *****************************

  NA   - Mulliken gross atomic population
  ZA   - Total nuclear charge
  QA   - Mulliken gross atomic charge
  VA   - Mayer's total valence
  BVA  - Mayer's bonded valence
  FA   - Mayer's free valence

  ATOM       NA         ZA         QA         VA         BVA        FA
  0 C      6.0585     6.0000    -0.0585     4.0040     4.0040    -0.0000
  1 C      6.0587     6.0000    -0.0587     4.0039     4.0039    -0.0000
  2 C      6.0580     6.0000    -0.0580     3.9825     3.9825    -0.0000
  3 C      6.0999     6.0000    -0.0999     4.0552     4.0552     0.0000
  4 C      6.0999     6.0000    -0.0999     4.0547     4.0547     0.0000
  5 C      6.0582     6.0000    -0.0582     3.9830     3.9830    -0.0000
  6 H      0.9733     1.0000     0.0267     0.9886     0.9886    -0.0000
  7 H      0.9734     1.0000     0.0266     0.9886     0.9886    -0.0000
  8 H      0.9490     1.0000     0.0510     0.9734     0.9734    -0.0000
  9 H      0.9479     1.0000     0.0521     0.9799     0.9799    -0.0000
 10 H      0.9580     1.0000     0.0420     0.9769     0.9769     0.0000
 11 H      0.9552     1.0000     0.0448     0.9736     0.9736     0.0000
 12 H      0.9578     1.0000     0.0422     0.9770     0.9770     0.0000
 13 H      0.9554     1.0000     0.0446     0.9738     0.9738     0.0000
 14 H      0.9489     1.0000     0.0511     0.9734     0.9734    -0.0000
 15 H      0.9480     1.0000     0.0520     0.9800     0.9800    -0.0000

  Mayer bond orders larger than 0.100000
B(  0-C ,  1-C ) :   1.2143 B(  0-C ,  5-C ) :   1.7351 B(  0-C ,  6-H ) :   0.9632 
B(  1-C ,  2-C ) :   1.7343 B(  1-C ,  7-H ) :   0.9634 B(  2-C ,  3-C ) :   0.2457 
B(  2-C ,  8-H ) :   0.9536 B(  2-C ,  9-H ) :   0.9557 B(  3-C ,  4-C ) :   1.8402 
B(  3-C , 10-H ) :   0.9541 B(  3-C , 11-H ) :   0.9466 B(  4-C ,  5-C ) :   0.2452 
B(  4-C , 12-H ) :   0.9542 B(  4-C , 13-H ) :   0.9465 B(  5-C , 14-H ) :   0.9535 
B(  5-C , 15-H ) :   0.9556 


------------------
HIRSHFELD ANALYSIS
------------------

Total integrated alpha density =     23.000002158
Total integrated beta density  =     23.000002158

  ATOM     CHARGE      SPIN    
   0 C   -0.042829    0.000000
   1 C   -0.042911    0.000000
   2 C   -0.040857    0.000000
   3 C   -0.076445    0.000000
   4 C   -0.076504    0.000000
   5 C   -0.040834    0.000000
   6 H    0.033894    0.000000
   7 H    0.033849    0.000000
   8 H    0.036670    0.000000
   9 H    0.035988    0.000000
  10 H    0.024640    0.000000
  11 H    0.029043    0.000000
  12 H    0.024653    0.000000
  13 H    0.029011    0.000000
  14 H    0.036661    0.000000
  15 H    0.035965    0.000000

  TOTAL  -0.000004    0.000000

-------
TIMINGS
-------

Total SCF time: 0 days 0 hours 0 min 7 sec 

Total time                  ....       7.025 sec
Sum of individual times     ....       6.866 sec  ( 97.7%)

Fock matrix formation       ....       6.017 sec  ( 85.7%)
  Split-RI-J                ....       0.615 sec  ( 10.2% of F)
  Chain of spheres X        ....       4.064 sec  ( 67.5% of F)
  XC integration            ....       1.297 sec  ( 21.6% of F)
    Basis function eval.    ....       0.497 sec  ( 38.4% of XC)
    Density eval.           ....       0.266 sec  ( 20.5% of XC)
    XC-Functional eval.     ....       0.107 sec  (  8.2% of XC)
    XC-Potential eval.      ....       0.241 sec  ( 18.6% of XC)
Diagonalization             ....       0.034 sec  (  0.5%)
Density matrix formation    ....       0.003 sec  (  0.0%)
Population analysis         ....       0.138 sec  (  2.0%)
Initial guess               ....       0.053 sec  (  0.8%)
Orbital Transformation      ....       0.000 sec  (  0.0%)
Orbital Orthonormalization  ....       0.000 sec  (  0.0%)
DIIS solution               ....       0.025 sec  (  0.4%)
SOSCF solution              ....       0.032 sec  (  0.5%)
Grid generation             ....       0.563 sec  (  8.0%)

Maximum memory used throughout the entire SCF-calculation: 50.3 MB


-------------------------------------------------------------------------------
                          DFT DISPERSION CORRECTION                            
                                                                               
                              DFTD3 V3.1  Rev 1                                
                          USING Becke-Johnson damping                          
-------------------------------------------------------------------------------
The PBE0 functional is recognized
Active option DFTDOPT                   ...         4   

molecular C6(AA) [au] = 2278.190051 


            DFT-D V3
 parameters
 s6 scaling factor         :     1.0000 
 a1 scaling factor         :     0.4145 
 s8 scaling factor         :     1.2177 
 a2 scaling factor         :     4.8593 
 ad hoc parameters k1-k3   :    16.0000     1.3333    -4.0000 

 Edisp/kcal,au: -8.308349280039  -0.013240195945 
 E6   /kcal   :  -5.297693222 
 E8   /kcal   :  -3.010656058 
 % E8         :  36.236512892 

-------------------------   ----------------
Dispersion correction           -0.013240196
-------------------------   ----------------


-------------------------   --------------------
FINAL SINGLE POINT ENERGY      -234.066961964284
-------------------------   --------------------



           ************************************************************
           *        Program running with 8 parallel MPI-processes     *
           *              working on a common directory               *
           ************************************************************
------------------------------------------------------------------------------
                         ORCA SCF GRADIENT CALCULATION
------------------------------------------------------------------------------

 ... reading COSX grid (gridx3)
Gradient of the Kohn-Sham DFT energy:
Kohn-Sham wavefunction type      ... RKS
Hartree-Fock exchange scaling    ...    0.250
Number of operators              ...    1
Number of atoms                  ...   16
Basis set dimensions             ...  134
Integral neglect threshold       ... 2.5e-11
Integral primitive cutoff        ... 2.5e-12
SHARK Integral package           ... ON

Nuc. rep. gradient       (SHARK) ... done (  0.0 sec)
HCore & Overlap gradient (SHARK) ... done (  0.0 sec)
RI-J gradient            (SHARK) ... done (  0.1 sec)
COSX-gradient                    ... done (  0.9 sec)
Exchange-correlation gradient    ... done
Dispersion correction            ... done

------------------
CARTESIAN GRADIENT
------------------

   1   C   :    0.016030851   -0.009035289   -0.001590013
   2   C   :   -0.014207114   -0.011884057   -0.000135091
   3   C   :    0.009645545   -0.016040292    0.004462208
   4   C   :   -0.002572526    0.015767766   -0.003656966
   5   C   :   -0.000025463    0.015135523    0.006160126
   6   C   :   -0.006883525   -0.016618454   -0.006832057
   7   H   :   -0.004711863   -0.000569542    0.009520716
   8   H   :    0.004679135    0.001630847   -0.009516988
   9   H   :    0.010353286    0.004382414   -0.001568317
  10   H   :   -0.005053294    0.001233003    0.010228158
  11   H   :    0.008336025    0.003819235   -0.005900538
  12   H   :    0.002130521    0.001810313    0.011210788
  13   H   :   -0.008821927    0.001357015    0.006256321
  14   H   :   -0.002634885    0.003131230   -0.010896515
  15   H   :   -0.010888063    0.002165423    0.002108388
  16   H   :    0.004695914    0.003686182   -0.009880157

Difference to translation invariance:
           :    0.0000726181   -0.0000286843   -0.0000299366

Difference to rotation invariance:
           :   -0.0004484221    0.0003113786    0.0002755900

Norm of the cartesian gradient     ...    0.0567169087
RMS gradient                       ...    0.0081863806
MAX gradient                       ...    0.0166184545

-------
TIMINGS
-------

Total SCF gradient time            ...        1.938 sec

One electron gradient       ....       0.024 sec  (  1.2%)
RI-J Coulomb gradient       ....       0.148 sec  (  7.7%)
COSX gradient               ....       0.905 sec  ( 46.7%)
XC gradient                 ....       0.621 sec  ( 32.1%)

Maximum memory used throughout the entire SCFGRAD-calculation: 38.8 MB
------------------------------------------------------------------------------
                         ORCA GEOMETRY RELAXATION STEP
------------------------------------------------------------------------------

Reading the OPT-File                    .... done
Getting information on internals        .... done
Copying old internal coords+grads       .... done
Making the new internal coordinates     .... (new redundants).... done
Validating the new internal coordinates .... (new redundants).... done
Calculating the B-matrix                .... done
Calculating the G,G- and P matrices     .... done
Transforming gradient to internals      .... done
Projecting the internal gradient        .... done
Number of atoms                         ....  16
Number of internal coordinates          .... 161
Current Energy                          ....  -234.066961964 Eh
Current gradient norm                   ....     0.056716909 Eh/bohr
Maximum allowed component of the step   ....  0.300
Current trust radius                    ....  0.300
Evaluating the initial hessian          ....  (Almloef) done
Projecting the Hessian                  .... done
Forming the augmented Hessian           .... done
Diagonalizing the augmented Hessian     .... done
Last element of RFO vector              ....  0.991433444
Lowest eigenvalues of augmented Hessian:
 -0.004585986  0.012251404  0.019239625  0.025712910  0.025844627
Length of the computed step             ....  0.131741455
The final length of the internal step   ....  0.131741455
Converting the step to cartesian space:
 Initial RMS(Int)=    0.0103826812
Transforming coordinates:
 Iter   0:  RMS(Cart)=    0.0184201047 RMS(Int)=    0.0103702078
 Iter   1:  RMS(Cart)=    0.0000678354 RMS(Int)=    0.0000607804
 Iter   2:  RMS(Cart)=    0.0000009213 RMS(Int)=    0.0000006835
 Iter   3:  RMS(Cart)=    0.0000000108 RMS(Int)=    0.0000000091
Imposing constraints:
 Iter   0:  RMS(Cart)=    0.0000006540 RMS(Int)=    0.0000099313
 Iter   1:  RMS(Cart)=    0.0000004823 RMS(Int)=    0.0000073242
 Iter   2:  RMS(Cart)=    0.0000003557 RMS(Int)=    0.0000054015
 Iter   3:  RMS(Cart)=    0.0000002623 RMS(Int)=    0.0000039835
 Iter   4:  RMS(Cart)=    0.0000001935 RMS(Int)=    0.0000029378
 Iter   5:  RMS(Cart)=    0.0000001427 RMS(Int)=    0.0000021666
 Iter   6:  RMS(Cart)=    0.0000001052 RMS(Int)=    0.0000015978
 Iter   7:  RMS(Cart)=    0.0000000776 RMS(Int)=    0.0000011784
 Iter   8:  RMS(Cart)=    0.0000000572 RMS(Int)=    0.0000008690
 Iter   9:  RMS(Cart)=    0.0000000422 RMS(Int)=    0.0000006409
 Iter  10:  RMS(Cart)=    0.0000000311 RMS(Int)=    0.0000004727
 Iter  11:  RMS(Cart)=    0.0000000230 RMS(Int)=    0.0000003486
 Iter  12:  RMS(Cart)=    0.0000000169 RMS(Int)=    0.0000002571
 Iter  13:  RMS(Cart)=    0.0000000125 RMS(Int)=    0.0000001896
 Iter  14:  RMS(Cart)=    0.0000000092 RMS(Int)=    0.0000001398
 Iter  15:  RMS(Cart)=    0.0000000068 RMS(Int)=    0.0000001031
 Iter  16:  RMS(Cart)=    0.0000000050 RMS(Int)=    0.0000000760
CONVERGED
done
Storing new coordinates                 .... done

                                .--------------------.
          ----------------------|Geometry convergence|-------------------------
          Item                value                   Tolerance       Converged
          ---------------------------------------------------------------------
          RMS gradient        0.0032707293            0.0005000000      NO
          MAX gradient        0.0152296889            0.0020000000      NO
          RMS step            0.0103826812            0.0070000000      NO
          MAX step            0.0351272438            0.0100000000      NO
          ........................................................
          Max(Bonds)      0.0186      Max(Angles)    0.67
          Max(Dihed)        1.31      Max(Improp)    0.00
          ---------------------------------------------------------------------

The optimization has not yet converged - more geometry cycles are needed


    ---------------------------------------------------------------------------
                         Redundant Internal Coordinates
                            (Angstroem and degrees)

        Definition                    Value    dE/dq     Step     New-Value
    ----------------------------------------------------------------------------
     1. B(C   1,C   0)                1.4317  0.000232 -0.0021    1.4296   
     2. B(C   2,C   1)                1.3420 -0.011385  0.0104    1.3524   
     3. B(C   3,C   2)                2.2987 -0.002606 -0.0000    2.2987 C 
     4. B(C   3,C   1)                2.7240 -0.007063  0.0186    2.7426   
     5. B(C   4,C   0)                2.7245 -0.007007  0.0185    2.7430   
     6. B(C   4,C   3)                1.3482 -0.014592  0.0118    1.3600   
     7. B(C   5,C   4)                2.3000 -0.002604  0.0000    2.3000 C 
     8. B(C   5,C   0)                1.3420 -0.011285  0.0103    1.3523   
     9. B(H   6,C   0)                1.0817 -0.010411  0.0147    1.0964   
    10. B(H   7,C   1)                1.0816 -0.010501  0.0148    1.0964   
    11. B(H   8,C   3)                2.7034 -0.003190 -0.0020    2.7015   
    12. B(H   8,C   2)                1.0781 -0.008608  0.0156    1.0937   
    13. B(H   9,C   2)                1.0779 -0.009443  0.0158    1.0937   
    14. B(H   9,C   3)                2.5676 -0.004808 -0.0010    2.5666   
    15. B(H  10,H   8)                2.5393  0.000448 -0.0044    2.5349   
    16. B(H  10,C   2)                2.5268 -0.005107  0.0097    2.5366   
    17. B(H  10,C   3)                1.0770 -0.008685  0.0149    1.0918   
    18. B(H  11,C   2)                2.3554 -0.002437  0.0062    2.3615   
    19. B(H  11,C   3)                1.0748 -0.010200  0.0158    1.0906   
    20. B(H  11,H   8)                2.7100 -0.001918  0.0027    2.7127   
[...]
  49   0.0000       0.571169        15.5423 
  50   0.0000       0.602005        16.3814 
  51   0.0000       0.615430        16.7467 
  52   0.0000       0.646944        17.6042 
  53   0.0000       0.662116        18.0171 
  54   0.0000       0.670507        18.2454 
  55   0.0000       0.682987        18.5850 
  56   0.0000       0.684244        18.6192 
  57   0.0000       0.701502        19.0888 
  58   0.0000       0.714977        19.4555 
  59   0.0000       0.716276        19.4909 
  60   0.0000       0.716706        19.5026 
  61   0.0000       0.729833        19.8598 
  62   0.0000       0.746562        20.3150 
  63   0.0000       0.761158        20.7121 
  64   0.0000       0.765172        20.8214 
  65   0.0000       0.788709        21.4619 
  66   0.0000       0.828364        22.5409 
  67   0.0000       0.857792        23.3417 
  68   0.0000       0.885194        24.0874 
  69   0.0000       0.974979        26.5305 
  70   0.0000       1.007091        27.4043 
  71   0.0000       1.062759        28.9191 
  72   0.0000       1.124362        30.5954 
  73   0.0000       1.176085        32.0029 
  74   0.0000       1.223712        33.2989 
  75   0.0000       1.283346        34.9216 
  76   0.0000       1.318514        35.8786 
  77   0.0000       1.340420        36.4747 
  78   0.0000       1.342223        36.5237 
  79   0.0000       1.372811        37.3561 
  80   0.0000       1.391535        37.8656 
  81   0.0000       1.462735        39.8031 
  82   0.0000       1.623126        44.1675 
  83   0.0000       1.637696        44.5640 
  84   0.0000       1.649714        44.8910 
  85   0.0000       1.654684        45.0262 
  86   0.0000       1.660605        45.1874 
  87   0.0000       1.724896        46.9368 
  88   0.0000       1.761086        47.9216 
  89   0.0000       1.769561        48.1522 
  90   0.0000       1.772953        48.2445 
  91   0.0000       1.780892        48.4605 
  92   0.0000       1.781415        48.4748 
  93   0.0000       1.791300        48.7438 
  94   0.0000       1.804676        49.1077 
  95   0.0000       1.816540        49.4306 
  96   0.0000       1.845279        50.2126 
  97   0.0000       1.867834        50.8264 
  98   0.0000       1.876593        51.0647 
  99   0.0000       1.941669        52.8355 
 100   0.0000       1.981502        53.9194 
 101   0.0000       1.994280        54.2671 
 102   0.0000       2.017448        54.8975 
 103   0.0000       2.073251        56.4160 
 104   0.0000       2.092585        56.9421 
 105   0.0000       2.111068        57.4451 
 106   0.0000       2.167064        58.9688 
 107   0.0000       2.182203        59.3808 
 108   0.0000       2.217741        60.3478 
 109   0.0000       2.250126        61.2290 
 110   0.0000       2.253979        61.3339 
 111   0.0000       2.264441        61.6186 
 112   0.0000       2.349281        63.9272 
 113   0.0000       2.375413        64.6383 
 114   0.0000       2.382170        64.8221 
 115   0.0000       2.434779        66.2537 
 116   0.0000       2.458697        66.9045 
 117   0.0000       2.461481        66.9803 
 118   0.0000       2.524444        68.6936 
 119   0.0000       2.552459        69.4559 
 120   0.0000       2.643273        71.9271 
 121   0.0000       2.738343        74.5141 
 122   0.0000       2.742581        74.6294 
 123   0.0000       2.775589        75.5276 
 124   0.0000       2.818486        76.6949 
 125   0.0000       2.828843        76.9767 
 126   0.0000       2.840039        77.2814 
 127   0.0000       2.896622        78.8211 
 128   0.0000       2.980689        81.1087 
 129   0.0000       3.055770        83.1517 
 130   0.0000       3.092856        84.1609 
 131   0.0000       3.293330        89.6161 
 132   0.0000       3.299262        89.7775 
 133   0.0000       3.311853        90.1201 

                    ********************************
                    * MULLIKEN POPULATION ANALYSIS *
                    ********************************

-----------------------
MULLIKEN ATOMIC CHARGES
-----------------------
   0 C :   -0.055450
   1 C :   -0.055403
   2 C :   -0.081489
   3 C :   -0.114034
   4 C :   -0.114380
   5 C :   -0.081334
   6 H :    0.033392
   7 H :    0.033340
   8 H :    0.057229
   9 H :    0.057958
  10 H :    0.050021
  11 H :    0.052545
  12 H :    0.050103
  13 H :    0.052348
  14 H :    0.057289
  15 H :    0.057864
Sum of atomic charges:    0.0000000

--------------------------------
MULLIKEN REDUCED ORBITAL CHARGES
--------------------------------
  0 C s       :     3.136303  s :     3.136303
      pz      :     0.963288  p :     2.881555
      px      :     0.946853
      py      :     0.971414
      dz2     :     0.008874  d :     0.037592
      dxz     :     0.009740
      dyz     :     0.003533
      dx2y2   :     0.007644
      dxy     :     0.007800
  1 C s       :     3.137085  s :     3.137085
      pz      :     0.958962  p :     2.880751
      px      :     0.953146
      py      :     0.968643
      dz2     :     0.009414  d :     0.037567
      dxz     :     0.010003
      dyz     :     0.004238
      dx2y2   :     0.007528
      dxy     :     0.006384
  2 C s       :     3.125600  s :     3.125600
      pz      :     0.995305  p :     2.926992
      px      :     0.968759
      py      :     0.962927
      dz2     :     0.009301  d :     0.028897
      dxz     :     0.005836
      dyz     :     0.003937
      dx2y2   :     0.006510
      dxy     :     0.003312
  3 C s       :     3.114337  s :     3.114337
      pz      :     0.965730  p :     2.972013
      px      :     0.988879
      py      :     1.017404
      dz2     :     0.006817  d :     0.027683
      dxz     :     0.009054
      dyz     :     0.001356
      dx2y2   :     0.004547
      dxy     :     0.005909
  4 C s       :     3.114578  s :     3.114578
      pz      :     0.967801  p :     2.972124
      px      :     0.989211
      py      :     1.015112
      dz2     :     0.006058  d :     0.027677
      dxz     :     0.009624
      dyz     :     0.001739
      dx2y2   :     0.005286
      dxy     :     0.004969
  5 C s       :     3.125197  s :     3.125197
      pz      :     0.998176  p :     2.927246
      px      :     0.969480
      py      :     0.959590
      dz2     :     0.008531  d :     0.028892
      dxz     :     0.005664
      dyz     :     0.003579
      dx2y2   :     0.007897
      dxy     :     0.003222
  6 H s       :     0.943418  s :     0.943418
      pz      :     0.013154  p :     0.023190
      px      :     0.004922
      py      :     0.005114
  7 H s       :     0.943464  s :     0.943464
      pz      :     0.013461  p :     0.023197
      px      :     0.005158
      py      :     0.004578
  8 H s       :     0.919414  s :     0.919414
      pz      :     0.004156  p :     0.023357
      px      :     0.014250
      py      :     0.004951
  9 H s       :     0.918316  s :     0.918316
      pz      :     0.013473  p :     0.023726
      px      :     0.005717
      py      :     0.004536
 10 H s       :     0.926134  s :     0.926134
      pz      :     0.008100  p :     0.023845
      px      :     0.010111
      py      :     0.005635
 11 H s       :     0.922843  s :     0.922843
      pz      :     0.014444  p :     0.024612
      px      :     0.004400
      py      :     0.005768
 12 H s       :     0.926049  s :     0.926049
      pz      :     0.008370  p :     0.023848
      px      :     0.010425
      py      :     0.005054
 13 H s       :     0.923042  s :     0.923042
      pz      :     0.013953  p :     0.024610
      px      :     0.004369
      py      :     0.006288
 14 H s       :     0.919352  s :     0.919352
      pz      :     0.004285  p :     0.023359
      px      :     0.014875
      py      :     0.004198
 15 H s       :     0.918409  s :     0.918409
      pz      :     0.013149  p :     0.023727
      px      :     0.005482
      py      :     0.005095


                     *******************************
                     * LOEWDIN POPULATION ANALYSIS *
                     *******************************

----------------------
LOEWDIN ATOMIC CHARGES
----------------------
   0 C :   -0.050880
   1 C :   -0.050873
   2 C :   -0.020870
   3 C :   -0.075003
   4 C :   -0.075031
   5 C :   -0.020947
   6 H :    0.030227
   7 H :    0.030213
   8 H :    0.029731
   9 H :    0.030920
  10 H :    0.025576
  11 H :    0.030393
  12 H :    0.025556
  13 H :    0.030347
  14 H :    0.029759
  15 H :    0.030882

-------------------------------
LOEWDIN REDUCED ORBITAL CHARGES
-------------------------------
  0 C s       :     2.874063  s :     2.874063
      pz      :     1.045886  p :     3.082257
      px      :     1.051893
      py      :     0.984479
      dz2     :     0.022649  d :     0.094559
      dxz     :     0.025974
      dyz     :     0.009325
      dx2y2   :     0.018324
      dxy     :     0.018287
  1 C s       :     2.874114  s :     2.874114
      pz      :     1.055385  p :     3.082244
      px      :     1.046483
      py      :     0.980376
      dz2     :     0.024750  d :     0.094514
      dxz     :     0.026551
      dyz     :     0.010918
      dx2y2   :     0.018124
      dxy     :     0.014170
  2 C s       :     2.893915  s :     2.893915
      pz      :     1.062153  p :     3.054284
      px      :     1.030479
      py      :     0.961652
      dz2     :     0.023875  d :     0.072671
      dxz     :     0.015968
      dyz     :     0.010030
      dx2y2   :     0.014583
      dxy     :     0.008214
  3 C s       :     2.892997  s :     2.892997
      pz      :     1.051482  p :     3.112005
      px      :     1.070318
      py      :     0.990206
      dz2     :     0.018260  d :     0.070001
      dxz     :     0.024731
      dyz     :     0.003032
      dx2y2   :     0.012023
      dxy     :     0.011955
  4 C s       :     2.893032  s :     2.893032
      pz      :     1.049462  p :     3.112020
      px      :     1.071403
      py      :     0.991155
      dz2     :     0.016148  d :     0.069979
      dxz     :     0.026443
      dyz     :     0.003737
      dx2y2   :     0.013700
      dxy     :     0.009951
  5 C s       :     2.893894  s :     2.893894
      pz      :     1.051078  p :     3.054389
      px      :     1.044210
      py      :     0.959100
      dz2     :     0.021475  d :     0.072664
      dxz     :     0.015559
      dyz     :     0.009133
      dx2y2   :     0.018410
      dxy     :     0.008088
  6 H s       :     0.901889  s :     0.901889
      pz      :     0.037233  p :     0.067884
      px      :     0.015355
      py      :     0.015296
  7 H s       :     0.901884  s :     0.901884
      pz      :     0.037555  p :     0.067904
      px      :     0.016044
      py      :     0.014304
  8 H s       :     0.901366  s :     0.901366
      pz      :     0.012003  p :     0.068903
      px      :     0.041247
      py      :     0.015653
  9 H s       :     0.900008  s :     0.900008
      pz      :     0.038638  p :     0.069072
      px      :     0.016717
      py      :     0.013717
 10 H s       :     0.904377  s :     0.904377
      pz      :     0.023446  p :     0.070047
      px      :     0.028397
      py      :     0.018204
 11 H s       :     0.898287  s :     0.898287
      pz      :     0.041463  p :     0.071320
      px      :     0.012247
      py      :     0.017610
 12 H s       :     0.904400  s :     0.904400
      pz      :     0.024428  p :     0.070044
      px      :     0.029116
      py      :     0.016500
 13 H s       :     0.898343  s :     0.898343
      pz      :     0.040051  p :     0.071310
      px      :     0.012039
      py      :     0.019219
 14 H s       :     0.901337  s :     0.901337
      pz      :     0.012585  p :     0.068904
      px      :     0.042786
      py      :     0.013532
 15 H s       :     0.900056  s :     0.900056
      pz      :     0.037958  p :     0.069062
      px      :     0.015786
      py      :     0.015317


                      *****************************
                      * MAYER POPULATION ANALYSIS *
                      *****************************

  NA   - Mulliken gross atomic population
  ZA   - Total nuclear charge
  QA   - Mulliken gross atomic charge
  VA   - Mayer's total valence
  BVA  - Mayer's bonded valence
  FA   - Mayer's free valence

  ATOM       NA         ZA         QA         VA         BVA        FA
  0 C      6.0554     6.0000    -0.0554     3.9900     3.9900     0.0000
  1 C      6.0554     6.0000    -0.0554     3.9893     3.9893     0.0000
  2 C      6.0815     6.0000    -0.0815     3.9862     3.9862     0.0000
  3 C      6.1140     6.0000    -0.1140     4.0396     4.0396     0.0000
  4 C      6.1144     6.0000    -0.1144     4.0394     4.0394     0.0000
  5 C      6.0813     6.0000    -0.0813     3.9867     3.9867     0.0000
  6 H      0.9666     1.0000     0.0334     0.9873     0.9873     0.0000
  7 H      0.9667     1.0000     0.0333     0.9873     0.9873     0.0000
  8 H      0.9428     1.0000     0.0572     0.9723     0.9723     0.0000
  9 H      0.9420     1.0000     0.0580     0.9791     0.9791     0.0000
 10 H      0.9500     1.0000     0.0500     0.9766     0.9766    -0.0000
 11 H      0.9475     1.0000     0.0525     0.9733     0.9733    -0.0000
 12 H      0.9499     1.0000     0.0501     0.9767     0.9767     0.0000
 13 H      0.9477     1.0000     0.0523     0.9735     0.9735    -0.0000
 14 H      0.9427     1.0000     0.0573     0.9723     0.9723    -0.0000
 15 H      0.9421     1.0000     0.0579     0.9791     0.9791     0.0000

  Mayer bond orders larger than 0.100000
B(  0-C ,  1-C ) :   1.2295 B(  0-C ,  5-C ) :   1.7081 B(  0-C ,  6-H ) :   0.9581 
B(  1-C ,  2-C ) :   1.7071 B(  1-C ,  7-H ) :   0.9584 B(  2-C ,  3-C ) :   0.2730 
B(  2-C ,  8-H ) :   0.9530 B(  2-C ,  9-H ) :   0.9542 B(  3-C ,  4-C ) :   1.7935 
B(  3-C , 10-H ) :   0.9554 B(  3-C , 11-H ) :   0.9482 B(  4-C ,  5-C ) :   0.2725 
B(  4-C , 12-H ) :   0.9555 B(  4-C , 13-H ) :   0.9482 B(  5-C , 14-H ) :   0.9529 
B(  5-C , 15-H ) :   0.9541 


------------------
HIRSHFELD ANALYSIS
------------------

Total integrated alpha density =     23.000009633
Total integrated beta density  =     23.000009633

  ATOM     CHARGE      SPIN    
   0 C   -0.045981    0.000000
   1 C   -0.045955    0.000000
   2 C   -0.041624    0.000000
   3 C   -0.072871    0.000000
   4 C   -0.072882    0.000000
   5 C   -0.041650    0.000000
   6 H    0.033772    0.000000
   7 H    0.033831    0.000000
   8 H    0.036220    0.000000
   9 H    0.035234    0.000000
  10 H    0.025690    0.000000
  11 H    0.029571    0.000000
  12 H    0.025670    0.000000
  13 H    0.029517    0.000000
  14 H    0.036237    0.000000
  15 H    0.035201    0.000000

  TOTAL  -0.000019    0.000000

-------
TIMINGS
-------

Total SCF time: 0 days 0 hours 0 min 4 sec 

Total time                  ....       4.817 sec
Sum of individual times     ....       4.661 sec  ( 96.8%)

Fock matrix formation       ....       3.971 sec  ( 82.4%)
  Split-RI-J                ....       0.400 sec  ( 10.1% of F)
  Chain of spheres X        ....       2.881 sec  ( 72.6% of F)
  XC integration            ....       0.662 sec  ( 16.7% of F)
    Basis function eval.    ....       0.265 sec  ( 40.0% of XC)
    Density eval.           ....       0.137 sec  ( 20.7% of XC)
    XC-Functional eval.     ....       0.057 sec  (  8.6% of XC)
    XC-Potential eval.      ....       0.106 sec  ( 16.0% of XC)
Diagonalization             ....       0.006 sec  (  0.1%)
Density matrix formation    ....       0.002 sec  (  0.0%)
Population analysis         ....       0.129 sec  (  2.7%)
Initial guess               ....       0.007 sec  (  0.1%)
Orbital Transformation      ....       0.000 sec  (  0.0%)
Orbital Orthonormalization  ....       0.003 sec  (  0.1%)
DIIS solution               ....       0.004 sec  (  0.1%)
SOSCF solution              ....       0.026 sec  (  0.5%)
Grid generation             ....       0.517 sec  ( 10.7%)

Maximum memory used throughout the entire SCF-calculation: 50.3 MB


-------------------------------------------------------------------------------
                          DFT DISPERSION CORRECTION                            
                                                                               
                              DFTD3 V3.1  Rev 1                                
                          USING Becke-Johnson damping                          
-------------------------------------------------------------------------------
The PBE0 functional is recognized
Active option DFTDOPT                   ...         4   

molecular C6(AA) [au] = 2280.088829 


            DFT-D V3
 parameters
 s6 scaling factor         :     1.0000 
 a1 scaling factor         :     0.4145 
 s8 scaling factor         :     1.2177 
 a2 scaling factor         :     4.8593 
 ad hoc parameters k1-k3   :    16.0000     1.3333    -4.0000 

 Edisp/kcal,au: -8.250077904190  -0.013147334606 
 E6   /kcal   :  -5.260515070 
 E8   /kcal   :  -2.989562834 
 % E8         :  36.236783082 

-------------------------   ----------------
Dispersion correction           -0.013147335
-------------------------   ----------------


-------------------------   --------------------
FINAL SINGLE POINT ENERGY      -234.070061984927
-------------------------   --------------------

                                *** OPTIMIZATION RUN DONE ***

                            ***************************************
                            *     ORCA property calculations      *
                            ***************************************

                                    ---------------------
                                    Active property flags
                                    ---------------------
   (+) Dipole Moment


------------------------------------------------------------------------------
                       ORCA ELECTRIC PROPERTIES CALCULATION
------------------------------------------------------------------------------

Dipole Moment Calculation                       ... on
Quadrupole Moment Calculation                   ... off
Polarizability Calculation                      ... off
GBWName                                         ... TS_5ZPuRE_ll_ad_2-3_4-5_conf299_opt_orca.gbw
Electron density                                ... TS_5ZPuRE_ll_ad_2-3_4-5_conf299_opt_orca.scfp
The origin for moment calculation is the CENTER OF MASS  = (-0.184631,  0.513128 -0.715028)

-------------
DIPOLE MOMENT
-------------
                                X             Y             Z
Electronic contribution:     -0.23502       2.62951       0.20357
Nuclear contribution   :      0.24766      -2.77567      -0.21500
                        -----------------------------------------
Total Dipole Moment    :      0.01264      -0.14617      -0.01143
                        -----------------------------------------
Magnitude (a.u.)       :      0.14716
Magnitude (Debye)      :      0.37405



--------------------
Rotational spectrum 
--------------------
 
Rotational constants in cm-1:     0.132728     0.129184     0.074232 
Rotational constants in MHz :  3979.098214  3872.851129  2225.427543 

 Dipole components along the rotational axes: 
x,y,z [a.u.] :     0.147156     0.000753     0.000002 
x,y,z [Debye]:     0.374042     0.001915     0.000004 

 

Timings for individual modules:

Sum of individual times         ...       49.122 sec (=   0.819 min)
GTO integral calculation        ...        3.189 sec (=   0.053 min)   6.5 %
SCF iterations                  ...       34.066 sec (=   0.568 min)  69.3 %
SCF Gradient evaluation         ...       11.607 sec (=   0.193 min)  23.6 %
Geometry relaxation             ...        0.259 sec (=   0.004 min)   0.5 %
                             ****ORCA TERMINATED NORMALLY****
TOTAL RUN TIME: 0 days 0 hours 0 minutes 51 seconds 240 msec
