      -----------------------------------------------------------      
     |                   =====================                   |     
     |                           x T B                           |     
     |                   =====================                   |     
     |                         S. Grimme                         |     
     |          Mulliken Center for Theoretical Chemistry        |     
     |                    University of Bonn                     |     
      -----------------------------------------------------------      

   * xtb version 6.6.1 (8d0f1dd) compiled by 'conda@1efc2f54142f' on 2023-08-01

   xtb is free software: you can redistribute it and/or modify it under
   the terms of the GNU Lesser General Public License as published by
   the Free Software Foundation, either version 3 of the License, or
   (at your option) any later version.
   
   xtb is distributed in the hope that it will be useful,
   but WITHOUT ANY WARRANTY; without even the implied warranty of
   MERCHANTABILITY or FITNESS FOR A PARTICULAR PURPOSE.  See the
   GNU Lesser General Public License for more details.
   
   Cite this work as:
   * C. Bannwarth, E. Caldeweyher, S. Ehlert, A. Hansen, P. Pracht,
     J. Seibert, S. Spicher, S. Grimme, WIREs Comput. Mol. Sci., 2020, 11,
     e01493. DOI: 10.1002/wcms.1493
   
   for GFN2-xTB:
   * C. Bannwarth, S. Ehlert and S. Grimme., J. Chem. Theory Comput., 2019,
     15, 1652-1671. DOI: 10.1021/acs.jctc.8b01176
   for GFN1-xTB:
   * S. Grimme, C. Bannwarth, P. Shushkov, J. Chem. Theory Comput., 2017,
     13, 1989-2009. DOI: 10.1021/acs.jctc.7b00118
   for GFN0-xTB:
   * P. Pracht, E. Caldeweyher, S. Ehlert, S. Grimme, ChemRxiv, 2019, preprint.
     DOI: 10.26434/chemrxiv.8326202.v1
   for GFN-FF:
   * S. Spicher and S. Grimme, Angew. Chem. Int. Ed., 2020, 59, 15665-15673.
     DOI: 10.1002/anie.202004239
   
   for ALPB and GBSA implicit solvation:
   * S. Ehlert, M. Stahn, S. Spicher, S. Grimme, J. Chem. Theory Comput.,
     2021, 17, 4250-4261. DOI: 10.1021/acs.jctc.1c00471
   
   for DFT-D4:
   * E. Caldeweyher, C. Bannwarth and S. Grimme, J. Chem. Phys., 2017,
     147, 034112. DOI: 10.1063/1.4993215
   * E. Caldeweyher, S. Ehlert, A. Hansen, H. Neugebauer, S. Spicher,
     C. Bannwarth and S. Grimme, J. Chem. Phys., 2019, 150, 154122.
     DOI: 10.1063/1.5090222
   * E. Caldeweyher, J.-M. Mewes, S. Ehlert and S. Grimme, Phys. Chem. Chem. Phys.
     2020, 22, 8499-8512. DOI: 10.1039/D0CP00502A
   
   for sTDA-xTB:
   * S. Grimme and C. Bannwarth, J. Chem. Phys., 2016, 145, 054103.
     DOI: 10.1063/1.4959605
   
   in the mass-spec context:
   * V. Asgeirsson, C. Bauer and S. Grimme, Chem. Sci., 2017, 8, 4879.
     DOI: 10.1039/c7sc00601b
   * J. Koopman and S. Grimme, ACS Omega 2019, 4, 12, 15120-15133.
     DOI: 10.1021/acsomega.9b02011
   
   for metadynamics refer to:
   * S. Grimme, J. Chem. Theory Comput., 2019, 155, 2847-2862
     DOI: 10.1021/acs.jctc.9b00143
   
   for SPH calculations refer to:
   * S. Spicher and S. Grimme, J. Chem. Theory Comput., 2021, 17, 1701-1714
     DOI: 10.1021/acs.jctc.0c01306
   
   with help from (in alphabetical order)
   P. Atkinson, C. Bannwarth, F. Bohle, G. Brandenburg, E. Caldeweyher
   M. Checinski, S. Dohm, S. Ehlert, S. Ehrlich, I. Gerasimov, C. Hölzer
   A. Katbashev, J. Koopman, C. Lavigne, S. Lehtola, F. März, M. Müller,
   F. Musil, H. Neugebauer, J. Pisarek, C. Plett, P. Pracht, F. Pultar,
   J. Seibert, P. Shushkov, S. Spicher, M. Stahn, M. Steiner, T. Strunk,
   J. Stückrath, T. Rose, and J. Unsleber
   
 * started run on 2025/05/23 at 11:25:06.233     

           -------------------------------------------------
          |                Calculation Setup                |
           -------------------------------------------------

          program call               : /gpfs/fs1/home/copan/code/autode-practice/.pixi/envs/default/bin/xtb TS_5ZPuRE_ll_ad_2-3_4-5_conf299_opt_xtb.xyz --chrg 0 --uhf 0 --opt --input xcontrol_TS_5ZPuRE_ll_ad_2-3_4-5_conf299_opt_xtb
          hostname                   : beboplogin4.lcrc.anl.gov
          coordinate file            : TS_5ZPuRE_ll_ad_2-3_4-5_conf299_opt_xtb.xyz
          omp threads                :                     8

   ID    Z sym.   atoms
    1    6 C      1-6
    2    1 H      7-16
constraining bond 3 4 to    2.2987000 Å, actual value:    2.2987021 Å
constraining bond 5 6 to    2.3000000 Å, actual value:    2.3000132 Å

molecular fragmentation (1/2 indicates fragments):
1112211111222211
# atoms in fragment 1/2:    10     6
 fragment masses (1/2) :       54.09       28.05
CMA distance (Bohr)    :   4.910
constraining FC (au)   :  2.0000

           -------------------------------------------------
          |                 G F N 2 - x T B                 |
           -------------------------------------------------

        Reference                      10.1021/acs.jctc.8b01176
      * Hamiltonian:
        H0-scaling (s, p, d)           1.850000    2.230000    2.230000
        zeta-weighting                 0.500000
      * Dispersion:
        s8                             2.700000
        a1                             0.520000
        a2                             5.000000
        s9                             5.000000
      * Repulsion:
        kExp                           1.500000    1.000000
        rExp                           1.000000
      * Coulomb:
        alpha                          2.000000
        third order                    shell-resolved
        anisotropic                    true
        a3                             3.000000
        a5                             4.000000
        cn-shift                       1.200000
        cn-exp                         4.000000
        max-rad                        5.000000


          ...................................................
          :                      SETUP                      :
          :.................................................:
          :  # basis functions                  34          :
          :  # atomic orbitals                  34          :
          :  # shells                           22          :
          :  # electrons                        34          :
          :  max. iterations                   250          :
          :  Hamiltonian                  GFN2-xTB          :
          :  restarted?                      false          :
          :  GBSA solvation                  false          :
          :  PC potential                    false          :
          :  electronic temp.          300.0000000     K    :
          :  accuracy                    1.0000000          :
          :  -> integral cutoff          0.2500000E+02      :
          :  -> integral neglect         0.1000000E-07      :
          :  -> SCF convergence          0.1000000E-05 Eh   :
          :  -> wf. convergence          0.1000000E-03 e    :
          :  Broyden damping             0.4000000          :
          ...................................................

 iter      E             dE          RMSdq      gap      omega  full diag
   1    -17.8284836 -0.178285E+02  0.441E+00    0.48       0.0  T
   2    -17.8255972  0.288643E-02  0.296E+00    0.46       1.0  T
   3    -17.5889793  0.236618E+00  0.467E+00    1.23       1.0  T
   4    -17.8438005 -0.254821E+00  0.108E+00    0.46       1.0  T
   5    -17.8401522  0.364834E-02  0.969E-01    0.41       1.0  T
   6    -17.8542263 -0.140742E-01  0.257E-01    0.40       1.0  T
   7    -17.8531922  0.103410E-02  0.382E-01    0.41       1.0  T
   8    -17.8548767 -0.168450E-02  0.204E-01    0.41       1.0  T
   9    -17.8552917 -0.414956E-03  0.306E-02    0.41       1.0  T
  10    -17.8552900  0.171013E-05  0.300E-02    0.41       1.0  T
  11    -17.8552996 -0.960662E-05  0.478E-03    0.41       5.2  T
  12    -17.8552997 -0.149150E-06  0.245E-03    0.41      10.2  T
  13    -17.8552998 -0.409739E-07  0.147E-03    0.41      17.0  T
  14    -17.8552998 -0.220037E-07  0.184E-04    0.41     135.7  T
  15    -17.8552998 -0.199066E-09  0.121E-04    0.41     205.9  T

   *** convergence criteria satisfied after 15 iterations ***

         #    Occupation            Energy/Eh            Energy/eV
      -------------------------------------------------------------
         1        2.0000           -0.5946399             -16.1810
       ...           ...                  ...                  ...
        11        2.0000           -0.4467775             -12.1574
        12        2.0000           -0.4443171             -12.0905
        13        2.0000           -0.4421326             -12.0310
        14        2.0000           -0.4279411             -11.6449
        15        2.0000           -0.3928519             -10.6900
        16        2.0000           -0.3647406              -9.9251
        17        1.9992           -0.3042995              -8.2804 (HOMO)
        18        0.0008           -0.2893438              -7.8734 (LUMO)
        19                         -0.2307400              -6.2788
        20                         -0.2045062              -5.5649
        21                          0.0460484               1.2530
        22                          0.0911717               2.4809
       ...                                ...                  ...
        34                          0.4094944              11.1429
      -------------------------------------------------------------
                  HL-Gap            0.0149557 Eh            0.4070 eV
             Fermi-level           -0.2968216 Eh           -8.0769 eV

 SCC (total)                   0 d,  0 h,  0 min,  0.014 sec
 SCC setup                      ...        0 min,  0.000 sec (  2.884%)
 Dispersion                     ...        0 min,  0.000 sec (  1.548%)
 classical contributions        ...        0 min,  0.000 sec (  1.653%)
 integral evaluation            ...        0 min,  0.001 sec (  4.789%)
 iterations                     ...        0 min,  0.011 sec ( 77.821%)
 molecular gradient             ...        0 min,  0.001 sec (  8.641%)
 printout                       ...        0 min,  0.000 sec (  2.342%)

         :::::::::::::::::::::::::::::::::::::::::::::::::::::
         ::                     SUMMARY                     ::
         :::::::::::::::::::::::::::::::::::::::::::::::::::::
         :: total energy             -17.629191180217 Eh    ::
         :: gradient norm              0.257064305310 Eh/a0 ::
         :: HOMO-LUMO gap              0.406965332978 eV    ::
         ::.................................................::
         :: SCC energy               -17.855299797351 Eh    ::
         :: -> isotropic ES            0.004520247164 Eh    ::
         :: -> anisotropic ES          0.007517654936 Eh    ::
         :: -> anisotropic XC          0.023046834301 Eh    ::
         :: -> dispersion             -0.010425438297 Eh    ::
         :: repulsion energy           0.226070718716 Eh    ::
         :: add. restraining           0.000000001277 Eh    ::
         :: total charge               0.000000000000 e     ::
         :::::::::::::::::::::::::::::::::::::::::::::::::::::

      ----------------------------------------------------------- 
     |                   =====================                   |
     |                        A N C O P T                        |
     |                   =====================                   |
     |               Approximate Normal Coordinate               |
     |                Rational Function Optimizer                |
      ----------------------------------------------------------- 

          ...................................................
          :                      SETUP                      :
          :.................................................:
          :   optimization level            normal          :
          :   max. optcycles                   200          :
          :   ANC micro-cycles                  20          :
          :   degrees of freedom                42          :
          :.................................................:
          :   RF solver                   davidson          :
          :   write xtbopt.log                true          :
          :   linear?                        false          :
          :   energy convergence         0.5000000E-05 Eh   :
          :   grad. convergence          0.1000000E-02 Eh/α :
          :   maxmium RF displ.          1.0000000          :
          :   Hlow (freq-cutoff)         0.1000000E-01      :
          :   Hmax (freq-cutoff)         5.0000000          :
          :   S6 in model hess.         20.0000000          :
          ...................................................

generating ANC from model Hessian ...
Using Lindh-Hessian (1995)
 Shifting diagonal of input Hessian by    9.1493152589948498E-003
 Lowest  eigenvalues of input Hessian
    0.000000    0.000000    0.000000    0.000000    0.000000    0.000000
    0.010000    0.010294    0.011316    0.012154    0.012870    0.014658
    0.016621    0.021556    0.021951    0.023191    0.023491    0.025192
 Highest eigenvalues
    1.219599    1.237969    1.278597    1.294455    8.161537    8.195107


........................................................................
.............................. CYCLE    1 ..............................
........................................................................

 iter      E             dE          RMSdq      gap      omega  full diag
   1    -17.8552998 -0.178553E+02  0.570E-06    0.41       0.0  T
   2    -17.8552998  0.952483E-11  0.280E-05    0.41     891.5  T
   3    -17.8552998 -0.971312E-11  0.299E-06    0.41    8369.1  T
     SCC iter.                  ...        0 min,  0.002 sec
     gradient                   ...        0 min,  0.001 sec
 * total energy  :   -17.6291912 Eh     change       -0.1489582E-09 Eh
   gradient norm :     0.2570643 Eh/α   predicted     0.0000000E+00 (-100.00%)
   displ. norm   :     0.5603200 α      lambda       -0.9540254E-01
   maximum displ.:     0.2860517 α      in ANC's #27, #10, #8, ...

........................................................................
.............................. CYCLE    2 ..............................
........................................................................

 iter      E             dE          RMSdq      gap      omega  full diag
   1    -17.9825215 -0.179825E+02  0.593E-01    1.32       0.0  T
   2    -17.9819536  0.567953E-03  0.456E-01    1.32       1.0  T
   3    -17.9795686  0.238501E-02  0.484E-01    1.32       1.0  T
   4    -17.9827642 -0.319557E-02  0.968E-02    1.32       1.0  T
   5    -17.9828661 -0.101936E-03  0.367E-02    1.32       1.0  T
   6    -17.9828810 -0.148867E-04  0.954E-03    1.32       2.6  T
   7    -17.9828813 -0.331461E-06  0.683E-03    1.32       3.7  T
   8    -17.9828818 -0.449660E-06  0.157E-03    1.32      15.9  T
   9    -17.9828818 -0.203105E-07  0.411E-04    1.32      60.8  T
  10    -17.9828818 -0.245365E-09  0.626E-05    1.32     399.4  T
     SCC iter.                  ...        0 min,  0.005 sec
     gradient                   ...        0 min,  0.001 sec
 * total energy  :   -17.7093724 Eh     change       -0.8018119E-01 Eh
   gradient norm :     0.1463438 Eh/α   predicted    -0.6267748E-01 ( -21.83%)
   displ. norm   :     0.6915011 α      lambda       -0.7392829E-01
   maximum displ.:     0.3491649 α      in ANC's #10, #27, #8, ...

........................................................................
.............................. CYCLE    3 ..............................
........................................................................

 iter      E             dE          RMSdq      gap      omega  full diag
   1    -18.1002162 -0.181002E+02  0.705E-01    2.66       0.0  T
   2    -18.1004422 -0.226012E-03  0.436E-01    2.65       1.0  T
   3    -18.0997541  0.688042E-03  0.228E-01    2.65       1.0  T
   4    -18.1004941 -0.739989E-03  0.452E-02    2.65       1.0  T
   5    -18.1005154 -0.212415E-04  0.857E-03    2.65       2.9  T
   6    -18.1005154 -0.668233E-07  0.536E-03    2.65       4.7  T
   7    -18.1005156 -0.211162E-06  0.182E-03    2.65      13.7  T
   8    -18.1005157 -0.141420E-07  0.425E-04    2.65      58.8  T
   9    -18.1005157  0.165155E-09  0.191E-04    2.65     130.9  T
     SCC iter.                  ...        0 min,  0.005 sec
     gradient                   ...        0 min,  0.001 sec
 * total energy  :   -17.7494284 Eh     change       -0.4005605E-01 Eh
   gradient norm :     0.1245566 Eh/α   predicted    -0.5463944E-01 (  36.41%)
   displ. norm   :     0.6576267 α      lambda       -0.3385786E-01
   maximum displ.:     0.3486062 α      in ANC's #10, #8, #7, ...

........................................................................
.............................. CYCLE    4 ..............................
........................................................................

 iter      E             dE          RMSdq      gap      omega  full diag
   1    -18.0770950 -0.180771E+02  0.639E-01    3.01       0.0  T
   2    -18.0771515 -0.565273E-04  0.379E-01    3.01       1.0  T
   3    -18.0769630  0.188505E-03  0.131E-01    3.01       1.0  T
   4    -18.0771759 -0.212889E-03  0.192E-02    3.01       1.3  T
   5    -18.0771782 -0.229731E-05  0.804E-03    3.01       3.1  T
   6    -18.0771782  0.669212E-07  0.534E-03    3.01       4.7  T
   7    -18.0771785 -0.309391E-06  0.143E-03    3.01      17.5  T
   8    -18.0771785 -0.676977E-08  0.607E-04    3.01      41.2  T
   9    -18.0771785 -0.446388E-08  0.228E-04    3.01     109.7  T
     SCC iter.                  ...        0 min,  0.005 sec
     gradient                   ...        0 min,  0.001 sec
 * total energy  :   -17.7679616 Eh     change       -0.1853322E-01 Eh
   gradient norm :     0.0670345 Eh/α   predicted    -0.2425022E-01 (  30.85%)
   displ. norm   :     0.5533301 α      lambda       -0.1599442E-01
   maximum displ.:     0.3974629 α      in ANC's #5, #3, #2, ...

........................................................................
.............................. CYCLE    5 ..............................
........................................................................

 iter      E             dE          RMSdq      gap      omega  full diag
   1    -18.1084565 -0.181085E+02  0.504E-01    3.32       0.0  T
   2    -18.1084774 -0.208148E-04  0.298E-01    3.32       1.0  T
   3    -18.1081937  0.283664E-03  0.146E-01    3.33       1.0  T
   4    -18.1085075 -0.313820E-03  0.101E-02    3.32       2.5  T
   5    -18.1085076 -0.653930E-07  0.875E-03    3.32       2.9  T
   6    -18.1085082 -0.676522E-06  0.356E-03    3.32       7.0  T
   7    -18.1085083 -0.255494E-07  0.994E-04    3.32      25.1  T
   8    -18.1085083 -0.581971E-08  0.190E-04    3.32     131.4  T
     SCC iter.                  ...        0 min,  0.004 sec
     gradient                   ...        0 min,  0.001 sec
 * total energy  :   -17.7780507 Eh     change       -0.1008906E-01 Eh
   gradient norm :     0.0549241 Eh/α   predicted    -0.1044572E-01 (   3.54%)
   displ. norm   :     0.5192768 α      lambda       -0.1180960E-01
   maximum displ.:     0.2728907 α      in ANC's #5, #10, #27, ...

........................................................................
.............................. CYCLE    6 ..............................
........................................................................

 iter      E             dE          RMSdq      gap      omega  full diag
   1    -18.1411243 -0.181411E+02  0.494E-01    3.75       0.0  T
   2    -18.1411543 -0.300769E-04  0.291E-01    3.75       1.0  T
   3    -18.1409511  0.203253E-03  0.134E-01    3.75       1.0  T
   4    -18.1411838 -0.232668E-03  0.925E-03    3.75       2.7  T
   5    -18.1411840 -0.243512E-06  0.511E-03    3.75       4.9  T
   6    -18.1411839  0.541385E-07  0.245E-03    3.75      10.2  T
   7    -18.1411840 -0.841088E-07  0.594E-04    3.75      42.1  T
   8    -18.1411840 -0.102423E-08  0.196E-04    3.75     127.8  T
     SCC iter.                  ...        0 min,  0.004 sec
     gradient                   ...        0 min,  0.001 sec
 * total energy  :   -17.7844255 Eh     change       -0.6374795E-02 Eh
   gradient norm :     0.0490866 Eh/α   predicted    -0.7497043E-02 (  17.60%)
   displ. norm   :     0.5236888 α      lambda       -0.7576460E-02
   maximum displ.:     0.3257709 α      in ANC's #5, #2, #4, ...

........................................................................
.............................. CYCLE    7 ..............................
........................................................................

 iter      E             dE          RMSdq      gap      omega  full diag
   1    -18.1423568 -0.181424E+02  0.388E-01    4.02       0.0  T
   2    -18.1423650 -0.819988E-05  0.226E-01    4.02       1.0  T
   3    -18.1422675  0.974364E-04  0.896E-02    4.02       1.0  T
   4    -18.1423774 -0.109924E-03  0.640E-03    4.02       3.9  T
   5    -18.1423775 -0.189415E-07  0.385E-03    4.02       6.5  T
   6    -18.1423775 -0.294485E-07  0.164E-03    4.02      15.2  T
   7    -18.1423775 -0.216309E-07  0.458E-04    4.02      54.6  T
   8    -18.1423775 -0.100008E-08  0.130E-04    4.02     192.0  T
     SCC iter.                  ...        0 min,  0.004 sec
     gradient                   ...        0 min,  0.001 sec
 * total energy  :   -17.7889252 Eh     change       -0.4499700E-02 Eh
   gradient norm :     0.0383602 Eh/α   predicted    -0.4827140E-02 (   7.28%)
   displ. norm   :     0.5754560 α      lambda       -0.6812502E-02
   maximum displ.:     0.3985658 α      in ANC's #5, #2, #13, ...

........................................................................
.............................. CYCLE    8 ..............................
........................................................................

 iter      E             dE          RMSdq      gap      omega  full diag
   1    -18.1318253 -0.181318E+02  0.519E-01    3.98       0.0  T
   2    -18.1318430 -0.176360E-04  0.312E-01    3.97       1.0  T
   3    -18.1317160  0.126985E-03  0.971E-02    3.98       1.0  T
   4    -18.1318576 -0.141617E-03  0.140E-02    3.98       1.8  T
   5    -18.1318588 -0.115639E-05  0.602E-03    3.98       4.2  T
   6    -18.1318587  0.309278E-07  0.302E-03    3.98       8.3  T
   7    -18.1318588 -0.113036E-06  0.573E-04    3.98      43.6  T
   8    -18.1318588 -0.894183E-09  0.168E-04    3.98     149.0  T
     SCC iter.                  ...        0 min,  0.004 sec
     gradient                   ...        0 min,  0.001 sec
 * total energy  :   -17.7920394 Eh     change       -0.3114265E-02 Eh
   gradient norm :     0.0613786 Eh/α   predicted    -0.4534234E-02 (  45.60%)
   displ. norm   :     0.4449847 α      lambda       -0.7620743E-02
   maximum displ.:     0.2789157 α      in ANC's #5, #6, #12, ...

........................................................................
.............................. CYCLE    9 ..............................
........................................................................

 iter      E             dE          RMSdq      gap      omega  full diag
   1    -18.1300076 -0.181300E+02  0.411E-01    3.87       0.0  T
   2    -18.1300357 -0.281413E-04  0.237E-01    3.85       1.0  T
   3    -18.1298994  0.136370E-03  0.119E-01    3.87       1.0  T
   4    -18.1300611 -0.161789E-03  0.121E-02    3.86       2.1  T
   5    -18.1300612 -0.306265E-07  0.807E-03    3.86       3.1  T
   6    -18.1300613 -0.159856E-06  0.272E-03    3.86       9.2  T
   7    -18.1300614 -0.838036E-07  0.751E-04    3.86      33.3  T
   8    -18.1300614 -0.153421E-08  0.136E-04    3.86     183.8  T
     SCC iter.                  ...        0 min,  0.004 sec
     gradient                   ...        0 min,  0.001 sec
 * total energy  :   -17.7915696 Eh     change        0.4698812E-03 Eh
   gradient norm :     0.1215856 Eh/α   predicted    -0.4564876E-02 (*******%)
   displ. norm   :     0.2940158 α      lambda       -0.9282981E-02
   maximum displ.:     0.1334196 α      in ANC's #2, #12, #6, ...

........................................................................
.............................. CYCLE   10 ..............................
........................................................................

 iter      E             dE          RMSdq      gap      omega  full diag
   1    -18.1391789 -0.181392E+02  0.328E-01    4.02       0.0  T
   2    -18.1392164 -0.374726E-04  0.190E-01    4.03       1.0  T
   3    -18.1391703  0.460974E-04  0.691E-02    4.02       1.0  T
   4    -18.1392244 -0.540989E-04  0.157E-02    4.02       1.6  T
   5    -18.1392266 -0.221885E-05  0.574E-03    4.02       4.4  T
   6    -18.1392267 -0.484367E-07  0.204E-03    4.02      12.2  T
   7    -18.1392267 -0.591687E-08  0.857E-04    4.02      29.2  T
   8    -18.1392267 -0.101254E-07  0.274E-04    4.02      91.1  T
     SCC iter.                  ...        0 min,  0.004 sec
     gradient                   ...        0 min,  0.001 sec
 * total energy  :   -17.7948017 Eh     change       -0.3232088E-02 Eh
   gradient norm :     0.0416952 Eh/α   predicted    -0.5042733E-02 (  56.02%)
   displ. norm   :     0.2937649 α      lambda       -0.4807104E-02
   maximum displ.:     0.1691667 α      in ANC's #2, #5, #15, ...

........................................................................
.............................. CYCLE   11 ..............................
........................................................................

 iter      E             dE          RMSdq      gap      omega  full diag
   1    -18.1346205 -0.181346E+02  0.324E-01    3.92       0.0  T
   2    -18.1346301 -0.961415E-05  0.197E-01    3.92       1.0  T
   3    -18.1345969  0.331988E-04  0.534E-02    3.92       1.0  T
   4    -18.1346344 -0.374924E-04  0.106E-02    3.93       2.4  T
   5    -18.1346351 -0.748597E-06  0.450E-03    3.93       5.6  T
   6    -18.1346351 -0.134792E-08  0.178E-03    3.93      14.0  T
   7    -18.1346352 -0.407613E-07  0.529E-04    3.93      47.3  T
   8    -18.1346352 -0.157475E-08  0.160E-04    3.93     156.5  T
     SCC iter.                  ...        0 min,  0.004 sec
     gradient                   ...        0 min,  0.001 sec
 * total energy  :   -17.7942221 Eh     change        0.5795797E-03 Eh
   gradient norm :     0.1294548 Eh/α   predicted    -0.2610976E-02 (-550.49%)
   displ. norm   :     0.2061054 α      lambda       -0.5284884E-02
   maximum displ.:     0.1283996 α      in ANC's #1, #5, #4, ...

........................................................................
.............................. CYCLE   12 ..............................
........................................................................

 iter      E             dE          RMSdq      gap      omega  full diag
   1    -18.1451704 -0.181452E+02  0.186E-01    4.02       0.0  T
   2    -18.1451735 -0.308237E-05  0.112E-01    4.02       1.0  T
   3    -18.1451469  0.266410E-04  0.508E-02    4.01       1.0  T
   4    -18.1451780 -0.310772E-04  0.447E-03    4.01       5.6  T
   5    -18.1451780  0.204041E-08  0.152E-03    4.01      16.4  T
   6    -18.1451780 -0.113997E-07  0.647E-04    4.01      38.6  T
   7    -18.1451780 -0.416267E-08  0.201E-04    4.01     124.3  T
     SCC iter.                  ...        0 min,  0.004 sec
     gradient                   ...        0 min,  0.001 sec
 * total energy  :   -17.7958743 Eh     change       -0.1652189E-02 Eh
   gradient norm :     0.0723260 Eh/α   predicted    -0.2754694E-02 (  66.73%)
   displ. norm   :     0.3087576 α      lambda       -0.3434214E-02
   maximum displ.:     0.1774085 α      in ANC's #5, #4, #1, ...

........................................................................
.............................. CYCLE   13 ..............................
........................................................................

 iter      E             dE          RMSdq      gap      omega  full diag
   1    -18.1426099 -0.181426E+02  0.266E-01    3.93       0.0  T
   2    -18.1426382 -0.283844E-04  0.156E-01    3.91       1.0  T
   3    -18.1425729  0.653545E-04  0.819E-02    3.91       1.0  T
   4    -18.1426514 -0.784918E-04  0.105E-02    3.91       2.4  T
   5    -18.1426525 -0.114036E-05  0.545E-03    3.91       4.6  T
   6    -18.1426525 -0.758848E-08  0.241E-03    3.91      10.4  T
   7    -18.1426526 -0.595300E-07  0.649E-04    3.91      38.5  T
   8    -18.1426526 -0.281401E-08  0.220E-04    3.91     113.7  T
     SCC iter.                  ...        0 min,  0.004 sec
     gradient                   ...        0 min,  0.001 sec
 * total energy  :   -17.7954655 Eh     change        0.4087254E-03 Eh
   gradient norm :     0.0524848 Eh/α   predicted    -0.1880802E-02 (-560.16%)
   displ. norm   :     0.1812953 α      lambda       -0.2963216E-02
   maximum displ.:     0.0889895 α      in ANC's #4, #1, #8, ...

........................................................................
.............................. CYCLE   14 ..............................
........................................................................

 iter      E             dE          RMSdq      gap      omega  full diag
   1    -18.1385672 -0.181386E+02  0.172E-01    3.94       0.0  T
   2    -18.1385781 -0.109054E-04  0.104E-01    3.95       1.0  T
   3    -18.1385494  0.287818E-04  0.520E-02    3.95       1.0  T
   4    -18.1385838 -0.344863E-04  0.782E-03    3.95       3.2  T
   5    -18.1385842 -0.394470E-06  0.337E-03    3.95       7.4  T
   6    -18.1385842 -0.726155E-08  0.962E-04    3.95      26.0  T
   7    -18.1385842 -0.258394E-08  0.687E-04    3.95      36.4  T
     SCC iter.                  ...        0 min,  0.004 sec
     gradient                   ...        0 min,  0.001 sec
 * total energy  :   -17.7968335 Eh     change       -0.1367940E-02 Eh
   gradient norm :     0.0209331 Eh/α   predicted    -0.1530303E-02 (  11.87%)
   displ. norm   :     0.2361488 α      lambda       -0.1490791E-02
   maximum displ.:     0.1273237 α      in ANC's #1, #5, #6, ...

........................................................................
.............................. CYCLE   15 ..............................
........................................................................

 iter      E             dE          RMSdq      gap      omega  full diag
   1    -18.1507203 -0.181507E+02  0.191E-01    3.94       0.0  T
   2    -18.1507289 -0.856282E-05  0.120E-01    3.95       1.0  T
   3    -18.1506852  0.437389E-04  0.610E-02    3.94       1.0  T
   4    -18.1507380 -0.528660E-04  0.757E-03    3.94       3.3  T
   5    -18.1507383 -0.245787E-06  0.249E-03    3.94      10.0  T
   6    -18.1507383  0.599853E-08  0.153E-03    3.94      16.3  T
   7    -18.1507383 -0.201407E-07  0.280E-04    3.94      89.3  T
   8    -18.1507383 -0.454541E-09  0.127E-04    3.94     196.5  T
     SCC iter.                  ...        0 min,  0.004 sec
     gradient                   ...        0 min,  0.001 sec
 * total energy  :   -17.7956994 Eh     change        0.1134103E-02 Eh
   gradient norm :     0.0849301 Eh/α   predicted    -0.7869636E-03 (-169.39%)
   displ. norm   :     0.1374692 α      lambda       -0.2928067E-02
   maximum displ.:     0.0770227 α      in ANC's #5, #15, #12, ...

........................................................................
.............................. CYCLE   16 ..............................
........................................................................

 iter      E             dE          RMSdq      gap      omega  full diag
   1    -18.1449000 -0.181449E+02  0.132E-01    3.95       0.0  T
   2    -18.1449043 -0.431927E-05  0.824E-02    3.95       1.0  T
   3    -18.1448876  0.166472E-04  0.385E-02    3.95       1.0  T
   4    -18.1449075 -0.199079E-04  0.611E-03    3.95       4.1  T
   5    -18.1449077 -0.162137E-06  0.198E-03    3.95      12.6  T
   6    -18.1449077  0.525720E-09  0.918E-04    3.95      27.2  T
   7    -18.1449077 -0.497381E-08  0.318E-04    3.95      78.6  T
     SCC iter.                  ...        0 min,  0.004 sec
     gradient                   ...        0 min,  0.001 sec
 * total energy  :   -17.7971712 Eh     change       -0.1471832E-02 Eh
   gradient norm :     0.0167450 Eh/α   predicted    -0.1491700E-02 (   1.35%)
   displ. norm   :     0.1291302 α      lambda       -0.4156978E-03
   maximum displ.:     0.0584184 α      in ANC's #5, #9, #4, ...

........................................................................
.............................. CYCLE   17 ..............................
........................................................................

 iter      E             dE          RMSdq      gap      omega  full diag
   1    -18.1397598 -0.181398E+02  0.119E-01    3.92       0.0  T
   2    -18.1397626 -0.279876E-05  0.692E-02    3.91       1.0  T
   3    -18.1397551  0.747708E-05  0.286E-02    3.92       1.0  T
   4    -18.1397640 -0.889138E-05  0.337E-03    3.92       7.4  T
   5    -18.1397641 -0.370924E-07  0.199E-03    3.92      12.6  T
   6    -18.1397641 -0.104914E-07  0.604E-04    3.92      41.4  T
   7    -18.1397641 -0.635833E-09  0.156E-04    3.92     160.5  T
     SCC iter.                  ...        0 min,  0.004 sec
     gradient                   ...        0 min,  0.001 sec
 * total energy  :   -17.7970730 Eh     change        0.9824465E-04 Eh
   gradient norm :     0.0297279 Eh/α   predicted    -0.2113133E-03 (-315.09%)
   displ. norm   :     0.0969027 α      lambda       -0.5353002E-03
   maximum displ.:     0.0692972 α      in ANC's #1, #4, #6, ...

........................................................................
.............................. CYCLE   18 ..............................
........................................................................

 iter      E             dE          RMSdq      gap      omega  full diag
   1    -18.1419309 -0.181419E+02  0.749E-02    3.93       0.0  T
   2    -18.1419318 -0.894194E-06  0.439E-02    3.93       1.0  T
   3    -18.1419246  0.714477E-05  0.272E-02    3.93       1.0  T
   4    -18.1419333 -0.873196E-05  0.230E-03    3.93      10.9  T
   5    -18.1419333 -0.404126E-08  0.101E-03    3.93      24.8  T
   6    -18.1419333 -0.331238E-08  0.470E-04    3.93      53.2  T
   7    -18.1419333 -0.158442E-08  0.133E-04    3.93     187.6  T
     SCC iter.                  ...        0 min,  0.004 sec
     gradient                   ...        0 min,  0.001 sec
 * total energy  :   -17.7973737 Eh     change       -0.3007033E-03 Eh
   gradient norm :     0.0106962 Eh/α   predicted    -0.2701630E-03 ( -10.16%)
   displ. norm   :     0.1037442 α      lambda       -0.2506018E-03
   maximum displ.:     0.0505423 α      in ANC's #1, #9, #6, ...

........................................................................
.............................. CYCLE   19 ..............................
........................................................................

 iter      E             dE          RMSdq      gap      omega  full diag
   1    -18.1462982 -0.181463E+02  0.713E-02    3.92       0.0  T
   2    -18.1462990 -0.880534E-06  0.412E-02    3.92       1.0  T
   3    -18.1462947  0.430677E-05  0.190E-02    3.92       1.3  T
   4    -18.1462998 -0.503014E-05  0.183E-03    3.92      13.6  T
   5    -18.1462998 -0.146765E-07  0.866E-04    3.92      28.9  T
   6    -18.1462998 -0.858279E-09  0.308E-04    3.92      81.1  T
     SCC iter.                  ...        0 min,  0.003 sec
     gradient                   ...        0 min,  0.001 sec
 * total energy  :   -17.7974374 Eh     change       -0.6375061E-04 Eh
   gradient norm :     0.0095706 Eh/α   predicted    -0.1266513E-03 (  98.67%)
   displ. norm   :     0.1245924 α      lambda       -0.2387453E-03
   maximum displ.:     0.1077075 α      in ANC's #1, #2, #5, ...

........................................................................
.............................. CYCLE   20 ..............................
........................................................................

 iter      E             dE          RMSdq      gap      omega  full diag
   1    -18.1448868 -0.181449E+02  0.650E-02    3.92       0.0  T
   2    -18.1448879 -0.109321E-05  0.378E-02    3.92       1.0  T
   3    -18.1448818  0.600282E-05  0.255E-02    3.92       1.0  T
   4    -18.1448896 -0.779068E-05  0.135E-03    3.92      18.5  T
   5    -18.1448897 -0.158157E-07  0.589E-04    3.92      42.4  T
   6    -18.1448897 -0.290267E-09  0.305E-04    3.92      82.0  T
     SCC iter.                  ...        0 min,  0.003 sec
     gradient                   ...        0 min,  0.001 sec
 * total energy  :   -17.7975982 Eh     change       -0.1608247E-03 Eh
   gradient norm :     0.0148016 Eh/α   predicted    -0.1212264E-03 ( -24.62%)
   displ. norm   :     0.2594135 α      lambda       -0.3963931E-03
   maximum displ.:     0.2091133 α      in ANC's #1, #6, #8, ...
 * RMSD in coord.:     0.9999208 α      energy gain  -0.1684071E+00 Eh

generating ANC from model Hessian ...
Using Lindh-Hessian (1995)
 Shifting diagonal of input Hessian by    8.1461507360233443E-003
 Lowest  eigenvalues of input Hessian
    0.000000    0.000000    0.000000    0.000000    0.000000    0.000000
    0.010000    0.010863    0.010892    0.012496    0.015944    0.022216
    0.022666    0.024420    0.026784    0.030007    0.035391    0.041121
 Highest eigenvalues
    1.655049    1.691117    1.778671    1.973629    8.164310    8.281313


........................................................................
.............................. CYCLE   21 ..............................
........................................................................

 iter      E             dE          RMSdq      gap      omega  full diag
   1    -18.1411131 -0.181411E+02  0.165E-01    3.91       0.0  T
   2    -18.1411159 -0.275337E-05  0.976E-02    3.90       1.0  T
   3    -18.1410964  0.194872E-04  0.386E-02    3.90       1.0  T
   4    -18.1411186 -0.222474E-04  0.380E-03    3.90       6.6  T
   5    -18.1411187 -0.406995E-07  0.180E-03    3.90      13.9  T
   6    -18.1411187 -0.396676E-08  0.679E-04    3.90      36.8  T
   7    -18.1411187 -0.235429E-08  0.301E-04    3.90      83.0  T
     SCC iter.                  ...        0 min,  0.004 sec
     gradient                   ...        0 min,  0.001 sec
 * total energy  :   -17.7975620 Eh     change        0.3628267E-04 Eh
   gradient norm :     0.0131347 Eh/α   predicted     0.0000000E+00 (-100.00%)
   displ. norm   :     0.1074317 α      lambda       -0.4681885E-03
   maximum displ.:     0.0617282 α      in ANC's #2, #1, #10, ...

........................................................................
.............................. CYCLE   22 ..............................
........................................................................

 iter      E             dE          RMSdq      gap      omega  full diag
   1    -18.1430208 -0.181430E+02  0.864E-02    3.90       0.0  T
   2    -18.1430226 -0.177651E-05  0.511E-02    3.90       1.0  T
   3    -18.1430149  0.763032E-05  0.253E-02    3.90       1.0  T
   4    -18.1430240 -0.905141E-05  0.327E-03    3.90       7.6  T
   5    -18.1430240 -0.527908E-07  0.148E-03    3.90      16.9  T
   6    -18.1430240 -0.239316E-08  0.309E-04    3.90      80.9  T
   7    -18.1430240 -0.366711E-09  0.166E-04    3.90     150.8  T
     SCC iter.                  ...        0 min,  0.004 sec
     gradient                   ...        0 min,  0.001 sec
 * total energy  :   -17.7977993 Eh     change       -0.2373268E-03 Eh
   gradient norm :     0.0031128 Eh/α   predicted    -0.2367954E-03 (  -0.22%)
   displ. norm   :     0.0495018 α      lambda       -0.6946763E-04
   maximum displ.:     0.0251856 α      in ANC's #1, #2, #10, ...

........................................................................
.............................. CYCLE   23 ..............................
........................................................................

 iter      E             dE          RMSdq      gap      omega  full diag
   1    -18.1438360 -0.181438E+02  0.357E-02    3.91       0.0  T
   2    -18.1438362 -0.253049E-06  0.208E-02    3.91       1.2  T
   3    -18.1438347  0.154559E-05  0.122E-02    3.91       2.1  T
   4    -18.1438365 -0.186913E-05  0.907E-04    3.91      27.6  T
   5    -18.1438365 -0.473129E-08  0.440E-04    3.91      56.8  T
   6    -18.1438365 -0.102101E-09  0.130E-04    3.91     192.8  T
     SCC iter.                  ...        0 min,  0.003 sec
     gradient                   ...        0 min,  0.001 sec
 * total energy  :   -17.7978319 Eh     change       -0.3257835E-04 Eh
   gradient norm :     0.0016574 Eh/α   predicted    -0.3482046E-04 (   6.88%)
   displ. norm   :     0.0417500 α      lambda       -0.1204767E-04
   maximum displ.:     0.0373821 α      in ANC's #1, #7, #8, ...

........................................................................
.............................. CYCLE   24 ..............................
........................................................................

 iter      E             dE          RMSdq      gap      omega  full diag
   1    -18.1438557 -0.181439E+02  0.170E-02    3.91       0.0  T
   2    -18.1438557 -0.351516E-07  0.996E-03    3.91       2.5  T
   3    -18.1438554  0.297873E-06  0.527E-03    3.91       4.7  T
   4    -18.1438558 -0.354715E-06  0.303E-04    3.91      82.5  T
   5    -18.1438558 -0.140506E-09  0.162E-04    3.91     154.1  T
     SCC iter.                  ...        0 min,  0.003 sec
     gradient                   ...        0 min,  0.001 sec
 * total energy  :   -17.7978426 Eh     change       -0.1075417E-04 Eh
   gradient norm :     0.0020464 Eh/α   predicted    -0.6028193E-05 ( -43.95%)
   displ. norm   :     0.0238288 α      lambda       -0.7114264E-05
   maximum displ.:     0.0214747 α      in ANC's #1, #7, #8, ...

........................................................................
.............................. CYCLE   25 ..............................
........................................................................

 iter      E             dE          RMSdq      gap      omega  full diag
   1    -18.1436766 -0.181437E+02  0.765E-03    3.92       0.0  T
   2    -18.1436767 -0.811367E-08  0.459E-03    3.92       5.4  T
   3    -18.1436766  0.493681E-07  0.214E-03    3.92      11.7  T
   4    -18.1436767 -0.581463E-07  0.215E-04    3.92     116.3  T
   5    -18.1436767 -0.694875E-10  0.111E-04    3.92     225.0  T
     SCC iter.                  ...        0 min,  0.003 sec
     gradient                   ...        0 min,  0.001 sec
 * total energy  :   -17.7978475 Eh     change       -0.4903644E-05 Eh
   gradient norm :     0.0004735 Eh/α   predicted    -0.3557828E-05 ( -27.45%)
   displ. norm   :     0.0306208 α      lambda       -0.3211476E-05
   maximum displ.:     0.0277187 α      in ANC's #1, #3, #11, ...

   *** GEOMETRY OPTIMIZATION CONVERGED AFTER 25 ITERATIONS ***

------------------------------------------------------------------------
 total energy gain   :        -0.1686563 Eh     -105.8335 kcal/mol
 total RMSD          :         0.9964567 a0        0.5273 Å
 total power (kW/mol):       -17.7122868 (step)-2799.8613 (real)
------------------------------------------------------------------------

 ANCopt (total)                0 d,  0 h,  0 min,  0.158 sec
 optimizer setup                ...        0 min,  0.000 sec (  0.142%)
 model hessian                  ...        0 min,  0.015 sec (  9.426%)
 ANC generation                 ...        0 min,  0.001 sec (  0.502%)
 coordinate transformation      ...        0 min,  0.000 sec (  0.103%)
 single point calculation       ...        0 min,  0.131 sec ( 82.970%)
 optimization log               ...        0 min,  0.004 sec (  2.568%)
 hessian update                 ...        0 min,  0.000 sec (  0.216%)
 rational function              ...        0 min,  0.004 sec (  2.371%)

================
 final structure:
================
16
 xtb: 6.6.1 (8d0f1dd)
C            0.51115231555282        1.46812450770163       -0.36503598769935
C           -0.90677581208191        1.33069959854931       -0.21920693130629
C           -1.57380439219701        0.70084987307027       -1.19869201850438
C           -0.58799419582395       -1.32568914334229       -0.73712654143628
C            0.67036271389956       -1.25074322770445       -0.26009525153530
C            1.29082500954706        0.82479158357001        0.51771001401267
H            0.89478937488883        1.73398742154905       -1.34086191500562
H           -1.31733165620254        1.37435628358326        0.78047876118306
H           -2.61215111199308        0.43075461945239       -1.09826713716271
H           -1.18379112890512        0.69715023895550       -2.20318778332746
H           -1.40755424725453       -1.55921370533062       -0.07916518045977
H           -0.77160020379455       -1.43416034068239       -1.79032265654313
H            1.50920341961958       -1.23397835511423       -0.93483323456925
H            0.88371449350414       -1.48332172699889        0.76698967123398
H            2.35921693666466        0.75880873879785        0.39297384687011
H            0.92032848457836        0.60186363394337        1.50468234425003

 Bond Distances (Angstroems)
 ---------------------------
C1-C2=1.4320         C1-C6=1.3420         C1-H7=1.0817         C2-C1=1.4320         C2-C3=1.3420         C2-H8=1.0816         
C3-C2=1.3420         C3-H9=1.0776         C3-H10=1.0776        C4-C5=1.3478         C4-H11=1.0766        C4-H12=1.0746        
C5-C4=1.3478         C5-H13=1.0767        C5-H14=1.0745        C6-C1=1.3420         C6-H15=1.0777        C6-H16=1.0775        
H7-C1=1.0817         H8-C2=1.0816         H9-C3=1.0776         H10-C3=1.0776        H11-C4=1.0766        H12-C4=1.0746        
H13-C5=1.0767        H14-C5=1.0745        H15-C6=1.0777        H16-C6=1.0775        
 C  H  Rav=1.0776 sigma=0.0023  Rmin=1.0745  Rmax=1.0817    10
 C  C  Rav=1.3660 sigma=0.0382  Rmin=1.3420  Rmax=1.4320     4

 selected bond angles (degree)
 --------------------
C6-C1-C2=117.53                H7-C1-C2=117.82                H7-C1-C6=120.34                C3-C2-C1=117.57                
H8-C2-C1=117.78                H8-C2-C3=120.32                H9-C3-C2=121.91                H10-C3-C2=120.14               
H10-C3-H9=115.77               H11-C4-C5=120.43               H12-C4-C5=120.80               H12-C4-H11=116.55              
H13-C5-C4=120.43               H14-C5-C4=120.77               H14-C5-H13=116.60              H15-C6-C1=121.95               
H16-C6-C1=120.13               H16-C6-H15=115.74              

 selected dihedral angles (degree)
 ---------------------------------
C3-C2-C1-C6=245.18            C3-C2-C1-H7= 41.99            H8-C2-C1-C6= 41.94            H8-C2-C1-H7=198.74            
H9-C3-C2-C1=170.89            H9-C3-C2-H8= 14.75            H10-C3-C2-C1=333.39           H10-C3-C2-H8=177.24           
H13-C5-C4-H11=166.50          H13-C5-C4-H12=  4.01          H14-C5-C4-H11=  3.92          H14-C5-C4-H12=201.44          
H15-C6-C1-C2=170.89           H15-C6-C1-H7= 14.70           H16-C6-C1-C2=333.37           H16-C6-C1-H7=177.18           

 CMA Distance (Angstroems)
 ---------------------------
R(CMA):  2.3892
           -------------------------------------------------
          |                Final Singlepoint                |
           -------------------------------------------------

          ...................................................
          :                      SETUP                      :
          :.................................................:
          :  # basis functions                  34          :
          :  # atomic orbitals                  34          :
          :  # shells                           22          :
          :  # electrons                        34          :
          :  max. iterations                   250          :
          :  Hamiltonian                  GFN2-xTB          :
          :  restarted?                      false          :
          :  GBSA solvation                  false          :
          :  PC potential                    false          :
          :  electronic temp.          300.0000000     K    :
          :  accuracy                    1.0000000          :
          :  -> integral cutoff          0.2500000E+02      :
          :  -> integral neglect         0.1000000E-07      :
          :  -> SCF convergence          0.1000000E-05 Eh   :
          :  -> wf. convergence          0.1000000E-03 e    :
          :  Broyden damping             0.4000000          :
          ...................................................

 iter      E             dE          RMSdq      gap      omega  full diag
   1    -18.1436767 -0.181437E+02  0.400E-05    3.92       0.0  T
   2    -18.1436767 -0.433431E-11  0.326E-05    3.92     767.9  T
   3    -18.1436767 -0.148219E-10  0.992E-06    3.92    2520.3  T

   *** convergence criteria satisfied after 3 iterations ***

         #    Occupation            Energy/Eh            Energy/eV
      -------------------------------------------------------------
         1        2.0000           -0.6250015             -17.0072
       ...           ...                  ...                  ...
        11        2.0000           -0.4632444             -12.6055
        12        2.0000           -0.4492175             -12.2238
        13        2.0000           -0.4384744             -11.9315
        14        2.0000           -0.4303955             -11.7117
        15        2.0000           -0.4195908             -11.4176
        16        2.0000           -0.3884690             -10.5708
        17        2.0000           -0.3685071             -10.0276 (HOMO)
        18                         -0.2246256              -6.1124 (LUMO)
        19                         -0.2082132              -5.6658
        20                         -0.1496067              -4.0710
        21                          0.1136494               3.0926
        22                          0.1481430               4.0312
       ...                                ...                  ...
        34                          0.6010606              16.3557
      -------------------------------------------------------------
                  HL-Gap            0.1438815 Eh            3.9152 eV
             Fermi-level           -0.2965664 Eh           -8.0700 eV

 SCC (total)                   0 d,  0 h,  0 min,  0.004 sec
 SCC setup                      ...        0 min,  0.000 sec (  4.703%)
 Dispersion                     ...        0 min,  0.000 sec (  1.925%)
 classical contributions        ...        0 min,  0.000 sec (  0.339%)
 integral evaluation            ...        0 min,  0.000 sec (  9.617%)
 iterations                     ...        0 min,  0.002 sec ( 50.575%)
 molecular gradient             ...        0 min,  0.001 sec ( 24.949%)
 printout                       ...        0 min,  0.000 sec (  7.281%)

         :::::::::::::::::::::::::::::::::::::::::::::::::::::
         ::                     SUMMARY                     ::
         :::::::::::::::::::::::::::::::::::::::::::::::::::::
         :: total energy             -17.797847523726 Eh    ::
         :: gradient norm              0.000473552792 Eh/a0 ::
         :: HOMO-LUMO gap              3.915215657543 eV    ::
         ::.................................................::
         :: SCC energy               -18.143676659828 Eh    ::
         :: -> isotropic ES            0.003334839108 Eh    ::
         :: -> anisotropic ES          0.005836803275 Eh    ::
         :: -> anisotropic XC          0.018003229549 Eh    ::
         :: -> dispersion             -0.011168513081 Eh    ::
         :: repulsion energy           0.345761621067 Eh    ::
         :: add. restraining           0.000040562939 Eh    ::
         :: total charge              -0.000000000000 e     ::
         :::::::::::::::::::::::::::::::::::::::::::::::::::::

           -------------------------------------------------
          |                Property Printout                |
           -------------------------------------------------

    * Orbital Energies and Occupations

         #    Occupation            Energy/Eh            Energy/eV
      -------------------------------------------------------------
         1        2.0000           -0.6250015             -17.0072
       ...           ...                  ...                  ...
         5        2.0000           -0.5472831             -14.8923
         6        2.0000           -0.5386706             -14.6580
         7        2.0000           -0.5012140             -13.6387
         8        2.0000           -0.4976377             -13.5414
         9        2.0000           -0.4963086             -13.5052
        10        2.0000           -0.4733034             -12.8792
        11        2.0000           -0.4632444             -12.6055
        12        2.0000           -0.4492175             -12.2238
        13        2.0000           -0.4384744             -11.9315
        14        2.0000           -0.4303955             -11.7117
        15        2.0000           -0.4195908             -11.4176
        16        2.0000           -0.3884690             -10.5708
        17        2.0000           -0.3685071             -10.0276 (HOMO)
        18                         -0.2246256              -6.1124 (LUMO)
        19                         -0.2082132              -5.6658
        20                         -0.1496067              -4.0710
        21                          0.1136494               3.0926
        22                          0.1481430               4.0312
        23                          0.1614614               4.3936
        24                          0.1663989               4.5279
        25                          0.1804219               4.9095
        26                          0.2066140               5.6223
        27                          0.2229076               6.0656
        28                          0.2230473               6.0694
       ...                                ...                  ...
        34                          0.6010606              16.3557
      -------------------------------------------------------------
                  HL-Gap            0.1438815 Eh            3.9152 eV
             Fermi-level           -0.2965664 Eh           -8.0700 eV

     #   Z          covCN         q      C6AA      α(0)
     1   6 C        2.909    -0.031    28.784     8.797
     2   6 C        2.909    -0.031    28.785     8.798
     3   6 C        2.910    -0.071    29.768     8.947
     4   6 C        2.887    -0.086    30.149     9.002
     5   6 C        2.886    -0.086    30.150     9.002
     6   6 C        2.910    -0.071    29.768     8.946
     7   1 H        0.925     0.036     2.501     2.473
     8   1 H        0.925     0.036     2.501     2.473
     9   1 H        0.926     0.039     2.462     2.454
    10   1 H        0.926     0.043     2.407     2.426
    11   1 H        0.926     0.031     2.576     2.510
    12   1 H        0.926     0.039     2.456     2.451
    13   1 H        0.926     0.031     2.576     2.510
    14   1 H        0.926     0.039     2.456     2.451
    15   1 H        0.926     0.039     2.463     2.454
    16   1 H        0.926     0.043     2.408     2.427

 Mol. C6AA /au·bohr⁶  :       2338.634819
 Mol. C8AA /au·bohr⁸  :      52969.563733
 Mol. α(0) /au        :         78.120904


Wiberg/Mayer (AO) data.
largest (>0.10) Wiberg bond orders for each atom

 ---------------------------------------------------------------------------
     #   Z sym  total        # sym  WBO       # sym  WBO       # sym  WBO
 ---------------------------------------------------------------------------
     1   6 C    3.985 --     6 C    1.745     2 C    1.171     7 H    0.962
     2   6 C    3.985 --     3 C    1.745     1 C    1.171     8 H    0.962
     3   6 C    3.991 --     2 C    1.745     9 H    0.978    10 H    0.974
                             4 C    0.162     6 C    0.102
     4   6 C    3.993 --     5 C    1.804    11 H    0.979    12 H    0.968
                             3 C    0.162
     5   6 C    3.993 --     4 C    1.804    13 H    0.979    14 H    0.968
                             6 C    0.161
     6   6 C    3.991 --     1 C    1.745    15 H    0.978    16 H    0.974
                             5 C    0.161     3 C    0.102
     7   1 H    0.999 --     1 C    0.962
     8   1 H    0.999 --     2 C    0.962
     9   1 H    0.998 --     3 C    0.978
    10   1 H    0.998 --     3 C    0.974
    11   1 H    0.999 --     4 C    0.979
    12   1 H    0.998 --     4 C    0.968
    13   1 H    0.999 --     5 C    0.979
    14   1 H    0.998 --     5 C    0.968
    15   1 H    0.998 --     6 C    0.978
    16   1 H    0.998 --     6 C    0.974
 ---------------------------------------------------------------------------

Topologies differ in total number of bonds
Writing topology from bond orders to xtbtopo.mol

molecular dipole:
                 x           y           z       tot (Debye)
 q only:       -0.007       0.073       0.006
   full:        0.000      -0.006      -0.000       0.015
molecular quadrupole (traceless):
                xx          xy          yy          xz          yz          zz
 q only:        0.777       0.156      -1.470       0.412      -0.215       0.693
  q+dip:        2.498       0.769      -5.881      -0.122      -0.723       3.383
   full:        1.475       0.462      -3.585      -0.026      -0.437       2.110

           -------------------------------------------------
          |                Geometry Summary                 |
           -------------------------------------------------

      molecular mass/u    :       82.1438229
   center of mass at/Å    :       -0.0960772       0.2541945      -0.3799061
  moments of inertia/u·Å² :        0.1267215E+03   0.1272729E+03   0.2240585E+03
rotational constants/cm⁻¹ :        0.1330290E+00   0.1324526E+00   0.7523763E-01

 * 14 selected distances

     #   Z          #   Z                                           value/Å
     1   6 C        2   6 C                                       1.4320169 (max)
     2   6 C        3   6 C                                       1.3420243
     4   6 C        5   6 C                                       1.3478272
     1   6 C        6   6 C                                       1.3420162
     1   6 C        7   1 H                                       1.0817102
     2   6 C        8   1 H                                       1.0815885
     3   6 C        9   1 H                                       1.0775902
     3   6 C       10   1 H                                       1.0775602
     4   6 C       11   1 H                                       1.0766270
     4   6 C       12   1 H                                       1.0745694
     5   6 C       13   1 H                                       1.0766645
     5   6 C       14   1 H                                       1.0744838 (min)
     6   6 C       15   1 H                                       1.0776708
     6   6 C       16   1 H                                       1.0775338

 * 2 distinct bonds (by element types)

   Z      Z             #   av. dist./Å        max./Å        min./Å
   1 H    6 C          10     1.0775998     1.0817102     1.0744838
   6 C    6 C           4     1.3659711     1.4320169     1.3420162


optimized geometry written to: xtbopt.xyz


           -------------------------------------------------
          | TOTAL ENERGY              -17.797847523726 Eh   |
          | GRADIENT NORM               0.000473552792 Eh/α |
          | HOMO-LUMO GAP               3.915215657543 eV   |
           -------------------------------------------------

------------------------------------------------------------------------
 * finished run on 2025/05/23 at 11:25:06.423     
------------------------------------------------------------------------
 total:
 * wall-time:     0 d,  0 h,  0 min,  0.190 sec
 *  cpu-time:     0 d,  0 h,  0 min,  2.687 sec
 * ratio c/w:    14.147 speedup
 SCF:
 * wall-time:     0 d,  0 h,  0 min,  0.014 sec
 *  cpu-time:     0 d,  0 h,  0 min,  0.213 sec
 * ratio c/w:    14.774 speedup
 ANC optimizer:
 * wall-time:     0 d,  0 h,  0 min,  0.163 sec
 *  cpu-time:     0 d,  0 h,  0 min,  2.343 sec
 * ratio c/w:    14.345 speedup

