
                                 *****************
                                 * O   R   C   A *
                                 *****************

                                            #,                                       
                                            ###                                      
                                            ####                                     
                                            #####                                    
                                            ######                                   
                                           ########,                                 
                                     ,,################,,,,,                         
                               ,,#################################,,                 
                          ,,##########################################,,             
                       ,#########################################, ''#####,          
                    ,#############################################,,   '####,        
                  ,##################################################,,,,####,       
                ,###########''''           ''''###############################       
              ,#####''   ,,,,##########,,,,          '''####'''          '####       
            ,##' ,,,,###########################,,,                        '##       
           ' ,,###''''                  '''############,,,                           
         ,,##''                                '''############,,,,        ,,,,,,###''
      ,#''                                            '''#######################'''  
     '                                                          ''''####''''         
             ,#######,   #######,   ,#######,      ##                                
            ,#'     '#,  ##    ##  ,#'     '#,    #''#        ######   ,####,        
            ##       ##  ##   ,#'  ##            #'  '#       #        #'  '#        
            ##       ##  #######   ##           ,######,      #####,   #    #        
            '#,     ,#'  ##    ##  '#,     ,#' ,#      #,         ##   #,  ,#        
             '#######'   ##     ##  '#######'  #'      '#     #####' # '####'        



                  #######################################################
                  #                        -***-                        #
                  #          Department of theory and spectroscopy      #
                  #    Directorship and core code : Frank Neese         #
                  #        Max Planck Institute fuer Kohlenforschung    #
                  #                Kaiser Wilhelm Platz 1               #
                  #                 D-45470 Muelheim/Ruhr               #
                  #                      Germany                        #
                  #                                                     #
                  #                  All rights reserved                #
                  #                        -***-                        #
                  #######################################################


                         Program Version 5.0.4 -  RELEASE  -


 With contributions from (in alphabetic order):
   Daniel Aravena         : Magnetic Suceptibility
   Michael Atanasov       : Ab Initio Ligand Field Theory (pilot matlab implementation)
   Alexander A. Auer      : GIAO ZORA, VPT2 properties, NMR spectrum
   Ute Becker             : Parallelization
   Giovanni Bistoni       : ED, misc. LED, open-shell LED, HFLD
   Martin Brehm           : Molecular dynamics
   Dmytro Bykov           : SCF Hessian
   Vijay G. Chilkuri      : MRCI spin determinant printing, contributions to CSF-ICE
   Dipayan Datta          : RHF DLPNO-CCSD density
   Achintya Kumar Dutta   : EOM-CC, STEOM-CC
   Dmitry Ganyushin       : Spin-Orbit,Spin-Spin,Magnetic field MRCI
   Miquel Garcia          : C-PCM and meta-GGA Hessian, CC/C-PCM, Gaussian charge scheme
   Yang Guo               : DLPNO-NEVPT2, F12-NEVPT2, CIM, IAO-localization
   Andreas Hansen         : Spin unrestricted coupled pair/coupled cluster methods
   Benjamin Helmich-Paris : MC-RPA, TRAH-SCF, COSX integrals
   Lee Huntington         : MR-EOM, pCC
   Robert Izsak           : Overlap fitted RIJCOSX, COSX-SCS-MP3, EOM
   Marcus Kettner         : VPT2
   Christian Kollmar      : KDIIS, OOCD, Brueckner-CCSD(T), CCSD density, CASPT2, CASPT2-K
   Simone Kossmann        : Meta GGA functionals, TD-DFT gradient, OOMP2, MP2 Hessian
   Martin Krupicka        : Initial AUTO-CI
   Lucas Lang             : DCDCAS
   Marvin Lechner         : AUTO-CI (C++ implementation), FIC-MRCC
   Dagmar Lenk            : GEPOL surface, SMD
   Dimitrios Liakos       : Extrapolation schemes; Compound Job, initial MDCI parallelization
   Dimitrios Manganas     : Further ROCIS development; embedding schemes
   Dimitrios Pantazis     : SARC Basis sets
   Anastasios Papadopoulos: AUTO-CI, single reference methods and gradients
   Taras Petrenko         : DFT Hessian,TD-DFT gradient, ASA, ECA, R-Raman, ABS, FL, XAS/XES, NRVS
   Peter Pinski           : DLPNO-MP2, DLPNO-MP2 Gradient
   Christoph Reimann      : Effective Core Potentials
   Marius Retegan         : Local ZFS, SOC
   Christoph Riplinger    : Optimizer, TS searches, QM/MM, DLPNO-CCSD(T), (RO)-DLPNO pert. Triples
   Tobias Risthaus        : Range-separated hybrids, TD-DFT gradient, RPA, STAB
   Michael Roemelt        : Original ROCIS implementation
   Masaaki Saitow         : Open-shell DLPNO-CCSD energy and density
   Barbara Sandhoefer     : DKH picture change effects
   Avijit Sen             : IP-ROCIS
   Kantharuban Sivalingam : CASSCF convergence, NEVPT2, FIC-MRCI
   Bernardo de Souza      : ESD, SOC TD-DFT
   Georgi Stoychev        : AutoAux, RI-MP2 NMR, DLPNO-MP2 response
   Willem Van den Heuvel  : Paramagnetic NMR
   Boris Wezisla          : Elementary symmetry handling
   Frank Wennmohs         : Technical directorship


 We gratefully acknowledge several colleagues who have allowed us to
 interface, adapt or use parts of their codes:
   Stefan Grimme, W. Hujo, H. Kruse, P. Pracht,  : VdW corrections, initial TS optimization,
                  C. Bannwarth, S. Ehlert          DFT functionals, gCP, sTDA/sTD-DF
   Ed Valeev, F. Pavosevic, A. Kumar             : LibInt (2-el integral package), F12 methods
   Garnet Chan, S. Sharma, J. Yang, R. Olivares  : DMRG
   Ulf Ekstrom                                   : XCFun DFT Library
   Mihaly Kallay                                 : mrcc  (arbitrary order and MRCC methods)
   Jiri Pittner, Ondrej Demel                    : Mk-CCSD
   Frank Weinhold                                : gennbo (NPA and NBO analysis)
   Christopher J. Cramer and Donald G. Truhlar   : smd solvation model
   Lars Goerigk                                  : TD-DFT with DH, B97 family of functionals
   V. Asgeirsson, H. Jonsson                     : NEB implementation
   FAccTs GmbH                                   : IRC, NEB, NEB-TS, DLPNO-Multilevel, CI-OPT
                                                   MM, QMMM, 2- and 3-layer-ONIOM, Crystal-QMMM,
                                                   LR-CPCM, SF, NACMEs, symmetry and pop. for TD-DFT,
                                                   nearIR, NL-DFT gradient (VV10), updates on ESD,
                                                   ML-optimized integration grids
   S Lehtola, MJT Oliveira, MAL Marques          : LibXC Library
   Liviu Ungur et al                             : ANISO software


 Your calculation uses the libint2 library for the computation of 2-el integrals
 For citations please refer to: http://libint.valeyev.net

 Your ORCA version has been built with support for libXC version: 5.1.0
 For citations please refer to: https://tddft.org/programs/libxc/

 This ORCA versions uses:
   CBLAS   interface :  Fast vector & matrix operations
   LAPACKE interface :  Fast linear algebra routines
   SCALAPACK package :  Parallel linear algebra routines
   Shared memory     :  Shared parallel matrices
   BLAS/LAPACK       :  OpenBLAS 0.3.15  USE64BITINT DYNAMIC_ARCH NO_AFFINITY SkylakeX SINGLE_THREADED
        Core in use  :  SkylakeX
   Copyright (c) 2011-2014, The OpenBLAS Project


Your calculation utilizes the atom-pairwise dispersion correction
with the Becke-Johnson damping scheme (D3BJ)
Cite in your paper:
S.Grimme, S.Ehrlich, L.Goerigk, J Comput Chem, (2011), 32, 1456–1465 
S.Grimme, J.Antony, S.Ehrlich and H.Krieg, J.Chem.Phys., 132, (2010), 154104 
   

================================================================================

----- Orbital basis set information -----
Your calculation utilizes the basis: def2-TZVP
   F. Weigend and R. Ahlrichs, Phys. Chem. Chem. Phys. 7, 3297 (2005).

----- AuxJ basis set information -----
Your calculation utilizes the auxiliary basis: def2/J
   F. Weigend, Phys. Chem. Chem. Phys. 8, 1057 (2006).

================================================================================
                                        WARNINGS
                       Please study these warnings very carefully!
================================================================================


WARNING: your system is open-shell and RHF/RKS was chosen
  ===> : WILL SWITCH to UHF/UKS


INFO   : the flag for use of the SHARK integral package has been found!

================================================================================
                                       INPUT FILE
================================================================================
NAME = p1_HO_sp_orca.inp
|  1> ! SP PBE0 RIJCOSX D3BJ def2-TZVP def2/J 
|  2> %output 
|  3> xyzfile=True 
|  4> end 
|  5> %scf 
|  6> maxiter 250 
|  7> end
|  8> %output
|  9> Print[P_Hirshfeld] = 1
| 10> end
| 11> % maxcore
| 12> 4000
| 13> %pal nprocs 8
| 14> end
| 15> *xyz 0 2
| 16> O    0.48818649   0.00000000   0.00000000 
| 17> H   -0.48818649   0.00000000   0.00000000 
| 18> *
| 19> 
| 20>                          ****END OF INPUT****
================================================================================

                       ****************************
                       * Single Point Calculation *
                       ****************************

---------------------------------
CARTESIAN COORDINATES (ANGSTROEM)
---------------------------------
  O      0.488186    0.000000    0.000000
  H     -0.488186    0.000000    0.000000

----------------------------
CARTESIAN COORDINATES (A.U.)
----------------------------
  NO LB      ZA    FRAG     MASS         X           Y           Z
   0 O     8.0000    0    15.999    0.922539    0.000000    0.000000
   1 H     1.0000    0     1.008   -0.922539    0.000000    0.000000

--------------------------------
INTERNAL COORDINATES (ANGSTROEM)
--------------------------------
 O      0   0   0     0.000000000000     0.00000000     0.00000000
 H      1   0   0     0.976372980000     0.00000000     0.00000000

---------------------------
INTERNAL COORDINATES (A.U.)
---------------------------
 O      0   0   0     0.000000000000     0.00000000     0.00000000
 H      1   0   0     1.845077536761     0.00000000     0.00000000

---------------------
BASIS SET INFORMATION
---------------------
There are 2 groups of distinct atoms

 Group   1 Type O   : 11s6p2d1f contracted to 5s3p2d1f pattern {62111/411/11/1}
 Group   2 Type H   : 5s1p contracted to 3s1p pattern {311/1}

Atom   0O    basis set group =>   1
Atom   1H    basis set group =>   2
---------------------------------
AUXILIARY/J BASIS SET INFORMATION
---------------------------------
There are 2 groups of distinct atoms

 Group   1 Type O   : 12s5p4d2f1g contracted to 6s4p3d1f1g pattern {711111/2111/211/2/1}
 Group   2 Type H   : 5s2p1d contracted to 3s1p1d pattern {311/2/1}

Atom   0O    basis set group =>   1
Atom   1H    basis set group =>   2


           ************************************************************
           *        Program running with 8 parallel MPI-processes     *
           *              working on a common directory               *
           ************************************************************
------------------------------------------------------------------------------
                           ORCA GTO INTEGRAL CALCULATION
                           -- RI-GTO INTEGRALS CHOSEN --
------------------------------------------------------------------------------
------------------------------------------------------------------------------
                   ___                                                        
                  /   \      - P O W E R E D   B Y -                         
                 /     \                                                     
                 |  |  |   _    _      __       _____    __    __             
                 |  |  |  | |  | |    /  \     |  _  \  |  |  /  |          
                  \  \/   | |  | |   /    \    | | | |  |  | /  /          
                 / \  \   | |__| |  /  /\  \   | |_| |  |  |/  /          
                |  |  |   |  __  | /  /__\  \  |    /   |      \           
                |  |  |   | |  | | |   __   |  |    \   |  |\   \          
                \     /   | |  | | |  |  |  |  | |\  \  |  | \   \       
                 \___/    |_|  |_| |__|  |__|  |_| \__\ |__|  \__/        
                                                                              
                      - O R C A' S   B I G   F R I E N D -                    
                                      &                                       
                       - I N T E G R A L  F E E D E R -                       
                                                                              
 v1 FN, 2020, v2 2021                                                         
------------------------------------------------------------------------------


Reading SHARK input file p1_HO_sp_orca.SHARKINP.tmp ... ok
----------------------
SHARK INTEGRAL PACKAGE
----------------------

Number of atoms                             ...      2
Number of basis functions                   ...     37
Number of shells                            ...     15
Maximum angular momentum                    ...      3
Integral batch strategy                     ... SHARK/LIBINT Hybrid
RI-J (if used) integral strategy            ... SPLIT-RIJ (Revised 2003 algorithm where possible)
Printlevel                                  ...      1
Contraction scheme used                     ... SEGMENTED contraction
Coulomb Range Separation                    ... NOT USED
Exchange Range Separation                   ... NOT USED
Finite Nucleus Model                        ... NOT USED
Auxiliary Coulomb fitting basis             ... AVAILABLE
   # of basis functions in Aux-J            ...     60
   # of shells in Aux-J                     ...     20
   Maximum angular momentum in Aux-J        ...      4
Auxiliary J/K fitting basis                 ... NOT available
Auxiliary Correlation fitting basis         ... NOT available
Auxiliary 'external' fitting basis          ... NOT available
Integral threshold                          ...     1.000000e-10
Primitive cut-off                           ...     1.000000e-11
Primitive pair pre-selection threshold      ...     1.000000e-11

Calculating pre-screening integrals         ... done (  0.0 sec) Dimension = 15
Organizing shell pair data                  ... done (  0.0 sec)
Shell pair information
Total number of shell pairs                 ...       120
Shell pairs after pre-screening             ...       120
Total number of primitive shell pairs       ...       376
Primitive shell pairs kept                  ...       367
          la=0 lb=0:     36 shell pairs
          la=1 lb=0:     32 shell pairs
          la=1 lb=1:     10 shell pairs
          la=2 lb=0:     16 shell pairs
          la=2 lb=1:      8 shell pairs
          la=2 lb=2:      3 shell pairs
          la=3 lb=0:      8 shell pairs
          la=3 lb=1:      4 shell pairs
          la=3 lb=2:      2 shell pairs
          la=3 lb=3:      1 shell pairs

Calculating one electron integrals          ... done (  0.0 sec)
Calculating RI/J V-Matrix + Cholesky decomp.... done (  0.0 sec)
Calculating Nuclear repulsion               ... done (  0.0 sec) ENN=      4.335861144375 Eh

SHARK setup successfully completed in   0.1 seconds

Maximum memory used throughout the entire GTOINT-calculation: 13.8 MB


           ************************************************************
           *        Program running with 8 parallel MPI-processes     *
           *              working on a common directory               *
           ************************************************************
-------------------------------------------------------------------------------
                                 ORCA SCF
-------------------------------------------------------------------------------

------------
SCF SETTINGS
------------
Hamiltonian:
 Density Functional     Method          .... DFT(GTOs)
 Exchange Functional    Exchange        .... PBE
   PBE kappa parameter   XKappa         ....  0.804000
   PBE mue parameter    XMuePBE         ....  0.219520
 Correlation Functional Correlation     .... PBE
   PBE beta parameter  CBetaPBE         ....  0.066725
 LDA part of GGA corr.  LDAOpt          .... PW91-LDA
 Gradients option       PostSCFGGA      .... off
 Hybrid DFT is turned on
   Fraction HF Exchange ScalHFX         ....  0.250000
   Scaling of DF-GGA-X  ScalDFX         ....  0.750000
   Scaling of DF-GGA-C  ScalDFC         ....  1.000000
   Scaling of DF-LDA-C  ScalLDAC        ....  1.000000
   Perturbative correction              ....  0.000000
   Density functional embedding theory  .... OFF
   NL short-range parameter             ....  6.900000
 RI-approximation to the Coulomb term is turned on
   Number of AuxJ basis functions       .... 60
   RIJ-COSX (HFX calculated with COS-X)).... on


General Settings:
 Integral files         IntName         .... p1_HO_sp_orca
 Hartree-Fock type      HFTyp           .... UHF
 Total Charge           Charge          ....    0
 Multiplicity           Mult            ....    2
 Number of Electrons    NEL             ....    9
 Basis Dimension        Dim             ....   37
 Nuclear Repulsion      ENuc            ....      4.3358611444 Eh

Convergence Acceleration:
 DIIS                   CNVDIIS         .... on
   Start iteration      DIISMaxIt       ....    12
   Startup error        DIISStart       ....  0.200000
   # of expansion vecs  DIISMaxEq       ....     5
   Bias factor          DIISBfac        ....   1.050
   Max. coefficient     DIISMaxC        ....  10.000
 Trust-Rad. Augm. Hess. CNVTRAH         .... auto
   Auto Start mean grad. ratio tolernc. ....  1.125000
   Auto Start start iteration           ....    20
   Auto Start num. interpolation iter.  ....    10
   Max. Number of Micro iterations      ....    16
   Max. Number of Macro iterations      .... Maxiter - #DIIS iter
   Number of Davidson start vectors     ....     2
   Converg. threshold I  (grad. norm)   ....   5.000e-05
   Converg. threshold II (energy diff.) ....   1.000e-06
   Grad. Scal. Fac. for Micro threshold ....   0.100
   Minimum threshold for Micro iter.    ....   0.010
   NR start threshold (gradient norm)   ....   0.001
   Initial trust radius                 ....   0.400
   Minimum AH scaling param. (alpha)    ....   1.000
   Maximum AH scaling param. (alpha)    .... 1000.000
   Orbital update algorithm             .... Taylor
   White noise on init. David. guess    .... on
   Maximum white noise                  ....   0.010
   Quad. conv. algorithm                .... NR
 SOSCF                  CNVSOSCF        .... off
 Level Shifting         CNVShift        .... on
   Level shift para.    LevelShift      ....    0.2500
   Turn off err/grad.   ShiftErr        ....    0.0010
 Zerner damping         CNVZerner       .... off
 Static damping         CNVDamp         .... on
   Fraction old density DampFac         ....    0.7000
   Max. Damping (<1)    DampMax         ....    0.9800
   Min. Damping (>=0)   DampMin         ....    0.0000
   Turn off err/grad.   DampErr         ....    0.1000
 Fernandez-Rico         CNVRico         .... off

SCF Procedure:
 Maximum # iterations   MaxIter         ....   250
 SCF integral mode      SCFMode         .... Direct
   Integral package                     .... SHARK and LIBINT hybrid scheme
 Reset frequency        DirectResetFreq ....    20
 Integral Threshold     Thresh          ....  1.000e-10 Eh
 Primitive CutOff       TCut            ....  1.000e-11 Eh

Convergence Tolerance:
 Convergence Check Mode ConvCheckMode   .... Total+1el-Energy
 Convergence forced     ConvForced      .... 0
 Energy Change          TolE            ....  1.000e-06 Eh
 1-El. energy change                    ....  1.000e-03 Eh
 DIIS Error             TolErr          ....  1.000e-06


Diagonalization of the overlap matrix:
Smallest eigenvalue                        ... 1.075e-02
Time for diagonalization                   ...    0.000 sec
Threshold for overlap eigenvalues          ... 1.000e-08
Number of eigenvalues below threshold      ... 0
Time for construction of square roots      ...    0.000 sec
Total time needed                          ...    0.001 sec

Time for model grid setup =    0.006 sec

------------------------------
INITIAL GUESS: MODEL POTENTIAL
------------------------------
Loading Hartree-Fock densities                     ... done
Calculating cut-offs                               ... done
Initializing the effective Hamiltonian             ... done
Setting up the integral package (SHARK)            ... done
Starting the Coulomb interaction                   ... done (   0.0 sec)
Reading the grid                                   ... done
Mapping shells                                     ... done
Starting the XC term evaluation                    ... done (   0.0 sec)
  promolecular density results
     # of electrons  =      8.999391176
     EX              =     -8.366816637
     EC              =     -0.280060964
     EX+EC           =     -8.646877601
Transforming the Hamiltonian                       ... done (   0.0 sec)
Diagonalizing the Hamiltonian                      ... done (   0.0 sec)
Back transforming the eigenvectors                 ... done (   0.0 sec)
Now organizing SCF variables                       ... done
                      ------------------
                      INITIAL GUESS DONE (   0.0 sec)
                      ------------------
-------------------
DFT GRID GENERATION
-------------------

General Integration Accuracy     IntAcc      ... 4.388
Radial Grid Type                 RadialGrid  ... OptM3 with GC (2021)
Angular Grid (max. ang.)         AngularGrid ... 4 (Lebedev-302)
Angular grid pruning method      GridPruning ... 4 (adaptive)
Weight generation scheme         WeightScheme... Becke
Basis function cutoff            BFCut       ... 1.0000e-10
Integration weight cutoff        WCut        ... 1.0000e-14
Angular grids for H and He will be reduced by one unit
Partially contracted basis set               ... off
Rotationally invariant grid construction     ... off

Total number of grid points                  ...     9453
Total number of batches                      ...      149
Average number of points per batch           ...       63
Average number of grid points per atom       ...     4726
Time for grid setup =    0.033 sec

--------------------
COSX GRID GENERATION
--------------------

GRIDX 1
-------
General Integration Accuracy     IntAcc      ... 3.816
Radial Grid Type                 RadialGrid  ... OptM3 with GC (2021)
Angular Grid (max. ang.)         AngularGrid ... 1 (Lebedev-50)
Angular grid pruning method      GridPruning ... 4 (adaptive)
Weight generation scheme         WeightScheme... Becke
Basis function cutoff            BFCut       ... 1.0000e-10
Integration weight cutoff        WCut        ... 1.0000e-14
Angular grids for H and He will be reduced by one unit
Partially contracted basis set               ... on
Rotationally invariant grid construction     ... off

Total number of grid points                  ...     1209
Total number of batches                      ...       20
Average number of points per batch           ...       60
Average number of grid points per atom       ...      604
UseSFitting                                  ... on

GRIDX 2
-------
General Integration Accuracy     IntAcc      ... 4.020
Radial Grid Type                 RadialGrid  ... OptM3 with GC (2021)
Angular Grid (max. ang.)         AngularGrid ... 2 (Lebedev-110)
Angular grid pruning method      GridPruning ... 4 (adaptive)
Weight generation scheme         WeightScheme... Becke
Basis function cutoff            BFCut       ... 1.0000e-10
Integration weight cutoff        WCut        ... 1.0000e-14
Angular grids for H and He will be reduced by one unit
Partially contracted basis set               ... on
Rotationally invariant grid construction     ... off

Total number of grid points                  ...     2693
Total number of batches                      ...       43
Average number of points per batch           ...       62
Average number of grid points per atom       ...     1346
UseSFitting                                  ... on

GRIDX 3
-------
General Integration Accuracy     IntAcc      ... 4.338
Radial Grid Type                 RadialGrid  ... OptM3 with GC (2021)
Angular Grid (max. ang.)         AngularGrid ... 3 (Lebedev-194)
Angular grid pruning method      GridPruning ... 4 (adaptive)
Weight generation scheme         WeightScheme... Becke
Basis function cutoff            BFCut       ... 1.0000e-10
Integration weight cutoff        WCut        ... 1.0000e-14
Angular grids for H and He will be reduced by one unit
Partially contracted basis set               ... on
Rotationally invariant grid construction     ... off

Total number of grid points                  ...     6002
Total number of batches                      ...       95
Average number of points per batch           ...       63
Average number of grid points per atom       ...     3001
UseSFitting                                  ... on

Time for X-Grid setup             =    0.023 sec

--------------
SCF ITERATIONS
--------------
ITER       Energy         Delta-E        Max-DP      RMS-DP      [F,P]     Damp
               ***  Starting incremental Fock matrix formation  ***
  0    -75.6634807204   0.000000000000 0.01343753  0.00094617  0.0835730 0.7000
  1    -75.6730501336  -0.009569413264 0.00873927  0.00065002  0.0437416 0.7000
                               ***Turning on DIIS***
  2    -75.6771846410  -0.004134507315 0.01426535  0.00105946  0.0307776 0.0000
  3    -75.6843198698  -0.007135228838 0.00749535  0.00058279  0.0218868 0.0000
  4    -75.6855648706  -0.001245000798 0.00212323  0.00011606  0.0051604 0.0000
  5    -75.6856361836  -0.000071313050 0.00043137  0.00003182  0.0012014 0.0000
  6    -75.6856409027  -0.000004719103 0.00033452  0.00002340  0.0004741 0.0000
               *** Restarting incremental Fock matrix formation ***
                                   *** Resetting DIIS ***
  7    -75.6856184481   0.000022454673 0.00006712  0.00000489  0.0001182 0.0000
                 **** Energy Check signals convergence ****

               *****************************************************
               *                     SUCCESS                       *
               *           SCF CONVERGED AFTER   8 CYCLES          *
               *****************************************************

Old exchange energy                            =     -2.136998976 Eh
New exchange energy                            =     -2.137009258 Eh
Exchange energy change after final integration =     -0.000010282 Eh
Total energy after final integration           =    -75.685628798 Eh
Final COS-X integration done in                =     0.040 sec

----------------
TOTAL SCF ENERGY
----------------

Total Energy       :          -75.68562880 Eh           -2059.51066 eV

Components:
Nuclear Repulsion  :            4.33586114 Eh             117.98478 eV
Electronic Energy  :          -80.02148994 Eh           -2177.49544 eV
One Electron Energy:         -112.63522344 Eh           -3064.96025 eV
Two Electron Energy:           32.61373350 Eh             887.46481 eV
Max COSX asymmetry :            0.00000022 Eh               0.00001 eV

Virial components:
Potential Energy   :         -151.13932525 Eh           -4112.71013 eV
Kinetic Energy     :           75.45369645 Eh            2053.19946 eV
Virial Ratio       :            2.00307384


DFT components:
N(Alpha)           :        5.000000472484 electrons
N(Beta)            :        4.000000593510 electrons
N(Total)           :        9.000001065994 electrons
E(X)               :       -6.397459597929 Eh       
E(C)               :       -0.281009677523 Eh       
E(XC)              :       -6.678469275452 Eh       
DFET-embed. en.    :        0.000000000000 Eh       

---------------
SCF CONVERGENCE
---------------

  Last Energy change         ...   -6.8196e-08  Tolerance :   1.0000e-06
  Last MAX-Density change    ...    0.0000e+00  Tolerance :   1.0000e-05
  Last RMS-Density change    ...    0.0000e+00  Tolerance :   1.0000e-06
  Last DIIS Error            ...    6.5103e-05  Tolerance :   1.0000e-06

             **** THE GBW FILE WAS UPDATED (p1_HO_sp_orca.gbw) ****
             **** DENSITY p1_HO_sp_orca.scfp WAS UPDATED ****
             **** ENERGY FILE WAS UPDATED (p1_HO_sp_orca.en.tmp) ****
----------------------
UHF SPIN CONTAMINATION
----------------------

Warning: in a DFT calculation there is little theoretical justification to 
         calculate <S**2> as in Hartree-Fock theory. We will do it anyways
         but you should keep in mind that the values have only limited relevance

Expectation value of <S**2>     :     0.752598
Ideal value S*(S+1) for S=0.5   :     0.750000
Deviation                       :     0.002598

             **** THE GBW FILE WAS UPDATED (p1_HO_sp_orca.gbw) ****
             **** DENSITY p1_HO_sp_orca.scfp WAS UPDATED ****
----------------
ORBITAL ENERGIES
----------------
                 SPIN UP ORBITALS
  NO   OCC          E(Eh)            E(eV) 
   0   1.0000     -19.276257      -524.5336 
   1   1.0000      -1.048802       -28.5394 
   2   1.0000      -0.494440       -13.4544 
   3   1.0000      -0.439975       -11.9723 
   4   1.0000      -0.360696        -9.8150 
   5   0.0000       0.036615         0.9964 
   6   0.0000       0.382502        10.4084 
   7   0.0000       0.402158        10.9433 
   8   0.0000       0.422761        11.5039 
   9   0.0000       0.433399        11.7934 
  10   0.0000       0.568603        15.4725 
  11   0.0000       1.192470        32.4488 
  12   0.0000       1.223222        33.2856 
  13   0.0000       1.430802        38.9341 
  14   0.0000       1.432330        38.9757 
  15   0.0000       1.588553        43.2267 
  16   0.0000       2.039600        55.5003 
  17   0.0000       2.068267        56.2804 
  18   0.0000       2.133347        58.0513 
  19   0.0000       2.495227        67.8986 
  20   0.0000       2.524528        68.6959 
  21   0.0000       2.558432        69.6185 
  22   0.0000       2.677247        72.8516 
  23   0.0000       3.662095        99.6507 
  24   0.0000       5.065872       137.8494 
  25   0.0000       5.066132       137.8565 
  26   0.0000       5.078890       138.2036 
  27   0.0000       5.079022       138.2072 
  28   0.0000       5.310945       144.5182 
  29   0.0000       5.365917       146.0140 
  30   0.0000       6.052104       164.6861 
  31   0.0000       6.135460       166.9544 
  32   0.0000       6.145862       167.2374 
  33   0.0000       6.256267       170.2417 
  34   0.0000       6.321217       172.0091 
  35   0.0000       6.887565       187.4202 
  36   0.0000      43.106986      1173.0007 

                 SPIN DOWN ORBITALS
  NO   OCC          E(Eh)            E(eV) 
   0   1.0000     -19.249514      -523.8059 
   1   1.0000      -0.969912       -26.3926 
   2   1.0000      -0.467532       -12.7222 
   3   1.0000      -0.333950        -9.0872 
   4   0.0000      -0.150733        -4.1017 
   5   0.0000       0.044041         1.1984 
   6   0.0000       0.391672        10.6579 
   7   0.0000       0.435803        11.8588 
   8   0.0000       0.442874        12.0512 
   9   0.0000       0.471983        12.8433 
  10   0.0000       0.586967        15.9722 
  11   0.0000       1.225070        33.3359 
  12   0.0000       1.233983        33.5784 
  13   0.0000       1.493107        40.6295 
  14   0.0000       1.501440        40.8563 
  15   0.0000       1.602713        43.6120 
  16   0.0000       2.070322        56.3363 
  17   0.0000       2.076109        56.4938 
  18   0.0000       2.141639        58.2770 
  19   0.0000       2.537175        69.0400 
  20   0.0000       2.578321        70.1597 
  21   0.0000       2.617711        71.2315 
  22   0.0000       2.723174        74.1013 
  23   0.0000       3.687639       100.3458 
  24   0.0000       5.115458       139.1987 
  25   0.0000       5.122528       139.3911 
  26   0.0000       5.157132       140.3327 
  27   0.0000       5.161051       140.4393 
  28   0.0000       5.374047       146.2352 
  29   0.0000       5.380655       146.4151 
  30   0.0000       6.101852       166.0398 
  31   0.0000       6.231975       169.5807 
  32   0.0000       6.252585       170.1415 
  33   0.0000       6.334674       172.3752 
  34   0.0000       6.355705       172.9475 
  35   0.0000       6.915621       188.1836 
  36   0.0000      43.133103      1173.7114 

                    ********************************
                    * MULLIKEN POPULATION ANALYSIS *
                    ********************************

--------------------------------------------
MULLIKEN ATOMIC CHARGES AND SPIN POPULATIONS
--------------------------------------------
   0 O :   -0.320466    1.025321
   1 H :    0.320466   -0.025321
Sum of atomic charges         :    0.0000000
Sum of atomic spin populations:    1.0000000

-----------------------------------------------------
MULLIKEN REDUCED ORBITAL CHARGES AND SPIN POPULATIONS
-----------------------------------------------------
CHARGE
  0 O s       :     3.925500  s :     3.925500
      pz      :     0.992121  p :     4.380389
      px      :     1.407698
      py      :     1.980569
      dz2     :     0.003186  d :     0.013745
      dxz     :     0.000944
      dyz     :     0.000000
      dx2y2   :     0.007808
      dxy     :     0.001808
      f0      :     0.000013  f :     0.000832
      f+1     :     0.000152
      f-1     :     0.000034
      f+2     :     0.000033
      f-2     :     0.000000
      f+3     :     0.000508
      f-3     :     0.000094
  1 H s       :     0.635688  s :     0.635688
      pz      :     0.006890  p :     0.043846
      px      :     0.019460
      py      :     0.017496

SPIN
  0 O s       :     0.010376  s :     0.010376
      pz      :     0.992121  p :     1.013977
      px      :     0.021103
      py      :     0.000753
      dz2     :    -0.000072  d :     0.001151
      dxz     :     0.000944
      dyz     :     0.000000
      dx2y2   :     0.000219
      dxy     :     0.000061
      f0      :     0.000013  f :    -0.000183
      f+1     :    -0.000256
      f-1     :     0.000018
      f+2     :     0.000033
      f-2     :     0.000000
      f+3     :     0.000008
      f-3     :     0.000002
  1 H s       :    -0.031298  s :    -0.031298
      pz      :     0.006890  p :     0.005977
      px      :    -0.000080
      py      :    -0.000834


                     *******************************
                     * LOEWDIN POPULATION ANALYSIS *
                     *******************************

-------------------------------------------
LOEWDIN ATOMIC CHARGES AND SPIN POPULATIONS
-------------------------------------------
   0 O :   -0.148317    0.997854
   1 H :    0.148317    0.002146

----------------------------------------------------
LOEWDIN REDUCED ORBITAL CHARGES AND SPIN POPULATIONS
----------------------------------------------------
CHARGE
  0 O s       :     3.714621  s :     3.714621
      pz      :     0.978857  p :     4.412933
      px      :     1.481022
      py      :     1.953054
      dz2     :     0.005153  d :     0.019357
      dxz     :     0.000386
      dyz     :     0.000000
      dx2y2   :     0.013108
      dxy     :     0.000710
      f0      :     0.000063  f :     0.001406
      f+1     :     0.000410
      f-1     :     0.000048
      f+2     :     0.000001
      f-2     :     0.000000
      f+3     :     0.000882
      f-3     :     0.000002
  1 H s       :     0.694472  s :     0.694472
      pz      :     0.020693  p :     0.157211
      px      :     0.090331
      py      :     0.046186

SPIN
  0 O s       :     0.007906  s :     0.007906
      pz      :     0.978857  p :     0.989740
      px      :     0.010008
      py      :     0.000874
      dz2     :     0.000458  d :     0.000366
      dxz     :     0.000386
      dyz     :     0.000000
      dx2y2   :    -0.000516
      dxy     :     0.000038
      f0      :     0.000063  f :    -0.000158
      f+1     :    -0.000223
      f-1     :     0.000045
      f+2     :     0.000001
      f-2     :     0.000000
      f+3     :    -0.000043
      f-3     :     0.000000
  1 H s       :    -0.020501  s :    -0.020501
      pz      :     0.020693  p :     0.022647
      px      :     0.002910
      py      :    -0.000957


                      *****************************
                      * MAYER POPULATION ANALYSIS *
                      *****************************

  NA   - Mulliken gross atomic population
  ZA   - Total nuclear charge
  QA   - Mulliken gross atomic charge
  VA   - Mayer's total valence
  BVA  - Mayer's bonded valence
  FA   - Mayer's free valence

  ATOM       NA         ZA         QA         VA         BVA        FA
  0 O      8.3205     8.0000    -0.3205     1.8976     0.9066     0.9910
  1 H      0.6795     1.0000     0.3205     0.9077     0.9066     0.0011

  Mayer bond orders larger than 0.100000
B(  0-O ,  1-H ) :   0.9066 


------------------
HIRSHFELD ANALYSIS
------------------

Total integrated alpha density =      5.000000472
Total integrated beta density  =      4.000000593

  ATOM     CHARGE      SPIN    
   0 O   -0.164440    0.962894
   1 H    0.164439    0.037106

  TOTAL  -0.000001    1.000000

-------
TIMINGS
-------

Total SCF time: 0 days 0 hours 0 min 0 sec 

Total time                  ....       0.701 sec
Sum of individual times     ....       0.631 sec  ( 90.1%)

Fock matrix formation       ....       0.525 sec  ( 74.8%)
  Split-RI-J                ....       0.129 sec  ( 24.6% of F)
  Chain of spheres X        ....       0.318 sec  ( 60.7% of F)
  XC integration            ....       0.058 sec  ( 11.0% of F)
    Basis function eval.    ....       0.010 sec  ( 17.3% of XC)
    Density eval.           ....       0.008 sec  ( 14.4% of XC)
    XC-Functional eval.     ....       0.011 sec  ( 19.2% of XC)
    XC-Potential eval.      ....       0.011 sec  ( 19.7% of XC)
Diagonalization             ....       0.017 sec  (  2.4%)
Density matrix formation    ....       0.001 sec  (  0.1%)
Population analysis         ....       0.007 sec  (  0.9%)
Initial guess               ....       0.004 sec  (  0.6%)
Orbital Transformation      ....       0.000 sec  (  0.0%)
Orbital Orthonormalization  ....       0.000 sec  (  0.0%)
DIIS solution               ....       0.017 sec  (  2.4%)
Grid generation             ....       0.062 sec  (  8.8%)

Maximum memory used throughout the entire SCF-calculation: 57.4 MB


-------------------------------------------------------------------------------
                          DFT DISPERSION CORRECTION                            
                                                                               
                              DFTD3 V3.1  Rev 1                                
                          USING Becke-Johnson damping                          
-------------------------------------------------------------------------------
The PBE0 functional is recognized
Active option DFTDOPT                   ...         4   

molecular C6(AA) [au] = 28.149203 


            DFT-D V3
 parameters
 s6 scaling factor         :     1.0000 
 a1 scaling factor         :     0.4145 
 s8 scaling factor         :     1.2177 
 a2 scaling factor         :     4.8593 
 ad hoc parameters k1-k3   :    16.0000     1.3333    -4.0000 

 Edisp/kcal,au: -0.073997996072  -0.000117923300 
 E6   /kcal   :  -0.051007446 
 E8   /kcal   :  -0.022990550 
 % E8         :  31.069151590 

-------------------------   ----------------
Dispersion correction           -0.000117923
-------------------------   ----------------


-------------------------   --------------------
FINAL SINGLE POINT ENERGY       -75.685746721475
-------------------------   --------------------


                            ***************************************
                            *     ORCA property calculations      *
                            ***************************************

                                    ---------------------
                                    Active property flags
                                    ---------------------
   (+) Dipole Moment


------------------------------------------------------------------------------
                       ORCA ELECTRIC PROPERTIES CALCULATION
------------------------------------------------------------------------------

Dipole Moment Calculation                       ... on
Quadrupole Moment Calculation                   ... off
Polarizability Calculation                      ... off
GBWName                                         ... p1_HO_sp_orca.gbw
Electron density                                ... p1_HO_sp_orca.scfp
The origin for moment calculation is the CENTER OF MASS  = ( 0.813182,  0.000000  0.000000)

-------------
DIPOLE MOMENT
-------------
                                X             Y             Z
Electronic contribution:      0.16446      -0.00000      -0.00000
Nuclear contribution   :     -0.86086       0.00000       0.00000
                        -----------------------------------------
Total Dipole Moment    :     -0.69641      -0.00000      -0.00000
                        -----------------------------------------
Magnitude (a.u.)       :      0.69641
Magnitude (Debye)      :      1.77012



--------------------
Rotational spectrum 
--------------------
 
Rotational constants in cm-1:     0.000000    18.648321    18.648321 
Rotational constants in MHz :     0.000000 559062.600767 559062.600767 

 Dipole components along the rotational axes: 
x,y,z [a.u.] :    -0.696405    -0.000000    -0.000000 
x,y,z [Debye]:    -1.770121    -0.000000    -0.000000 

 

Timings for individual modules:

Sum of individual times         ...        1.385 sec (=   0.023 min)
GTO integral calculation        ...        0.383 sec (=   0.006 min)  27.7 %
SCF iterations                  ...        1.001 sec (=   0.017 min)  72.3 %
                             ****ORCA TERMINATED NORMALLY****
TOTAL RUN TIME: 0 days 0 hours 0 minutes 1 seconds 775 msec
