
                                 *****************
                                 * O   R   C   A *
                                 *****************

                                            #,                                       
                                            ###                                      
                                            ####                                     
                                            #####                                    
                                            ######                                   
                                           ########,                                 
                                     ,,################,,,,,                         
                               ,,#################################,,                 
                          ,,##########################################,,             
                       ,#########################################, ''#####,          
                    ,#############################################,,   '####,        
                  ,##################################################,,,,####,       
                ,###########''''           ''''###############################       
              ,#####''   ,,,,##########,,,,          '''####'''          '####       
            ,##' ,,,,###########################,,,                        '##       
           ' ,,###''''                  '''############,,,                           
         ,,##''                                '''############,,,,        ,,,,,,###''
      ,#''                                            '''#######################'''  
     '                                                          ''''####''''         
             ,#######,   #######,   ,#######,      ##                                
            ,#'     '#,  ##    ##  ,#'     '#,    #''#        ######   ,####,        
            ##       ##  ##   ,#'  ##            #'  '#       #        #'  '#        
            ##       ##  #######   ##           ,######,      #####,   #    #        
            '#,     ,#'  ##    ##  '#,     ,#' ,#      #,         ##   #,  ,#        
             '#######'   ##     ##  '#######'  #'      '#     #####' # '####'        



                  #######################################################
                  #                        -***-                        #
                  #          Department of theory and spectroscopy      #
                  #    Directorship and core code : Frank Neese         #
                  #        Max Planck Institute fuer Kohlenforschung    #
                  #                Kaiser Wilhelm Platz 1               #
                  #                 D-45470 Muelheim/Ruhr               #
                  #                      Germany                        #
                  #                                                     #
                  #                  All rights reserved                #
                  #                        -***-                        #
                  #######################################################


                         Program Version 5.0.4 -  RELEASE  -


 With contributions from (in alphabetic order):
   Daniel Aravena         : Magnetic Suceptibility
   Michael Atanasov       : Ab Initio Ligand Field Theory (pilot matlab implementation)
   Alexander A. Auer      : GIAO ZORA, VPT2 properties, NMR spectrum
   Ute Becker             : Parallelization
   Giovanni Bistoni       : ED, misc. LED, open-shell LED, HFLD
   Martin Brehm           : Molecular dynamics
   Dmytro Bykov           : SCF Hessian
   Vijay G. Chilkuri      : MRCI spin determinant printing, contributions to CSF-ICE
   Dipayan Datta          : RHF DLPNO-CCSD density
   Achintya Kumar Dutta   : EOM-CC, STEOM-CC
   Dmitry Ganyushin       : Spin-Orbit,Spin-Spin,Magnetic field MRCI
   Miquel Garcia          : C-PCM and meta-GGA Hessian, CC/C-PCM, Gaussian charge scheme
   Yang Guo               : DLPNO-NEVPT2, F12-NEVPT2, CIM, IAO-localization
   Andreas Hansen         : Spin unrestricted coupled pair/coupled cluster methods
   Benjamin Helmich-Paris : MC-RPA, TRAH-SCF, COSX integrals
   Lee Huntington         : MR-EOM, pCC
   Robert Izsak           : Overlap fitted RIJCOSX, COSX-SCS-MP3, EOM
   Marcus Kettner         : VPT2
   Christian Kollmar      : KDIIS, OOCD, Brueckner-CCSD(T), CCSD density, CASPT2, CASPT2-K
   Simone Kossmann        : Meta GGA functionals, TD-DFT gradient, OOMP2, MP2 Hessian
   Martin Krupicka        : Initial AUTO-CI
   Lucas Lang             : DCDCAS
   Marvin Lechner         : AUTO-CI (C++ implementation), FIC-MRCC
   Dagmar Lenk            : GEPOL surface, SMD
   Dimitrios Liakos       : Extrapolation schemes; Compound Job, initial MDCI parallelization
   Dimitrios Manganas     : Further ROCIS development; embedding schemes
   Dimitrios Pantazis     : SARC Basis sets
   Anastasios Papadopoulos: AUTO-CI, single reference methods and gradients
   Taras Petrenko         : DFT Hessian,TD-DFT gradient, ASA, ECA, R-Raman, ABS, FL, XAS/XES, NRVS
   Peter Pinski           : DLPNO-MP2, DLPNO-MP2 Gradient
   Christoph Reimann      : Effective Core Potentials
   Marius Retegan         : Local ZFS, SOC
   Christoph Riplinger    : Optimizer, TS searches, QM/MM, DLPNO-CCSD(T), (RO)-DLPNO pert. Triples
   Tobias Risthaus        : Range-separated hybrids, TD-DFT gradient, RPA, STAB
   Michael Roemelt        : Original ROCIS implementation
   Masaaki Saitow         : Open-shell DLPNO-CCSD energy and density
   Barbara Sandhoefer     : DKH picture change effects
   Avijit Sen             : IP-ROCIS
   Kantharuban Sivalingam : CASSCF convergence, NEVPT2, FIC-MRCI
   Bernardo de Souza      : ESD, SOC TD-DFT
   Georgi Stoychev        : AutoAux, RI-MP2 NMR, DLPNO-MP2 response
   Willem Van den Heuvel  : Paramagnetic NMR
   Boris Wezisla          : Elementary symmetry handling
   Frank Wennmohs         : Technical directorship


 We gratefully acknowledge several colleagues who have allowed us to
 interface, adapt or use parts of their codes:
   Stefan Grimme, W. Hujo, H. Kruse, P. Pracht,  : VdW corrections, initial TS optimization,
                  C. Bannwarth, S. Ehlert          DFT functionals, gCP, sTDA/sTD-DF
   Ed Valeev, F. Pavosevic, A. Kumar             : LibInt (2-el integral package), F12 methods
   Garnet Chan, S. Sharma, J. Yang, R. Olivares  : DMRG
   Ulf Ekstrom                                   : XCFun DFT Library
   Mihaly Kallay                                 : mrcc  (arbitrary order and MRCC methods)
   Jiri Pittner, Ondrej Demel                    : Mk-CCSD
   Frank Weinhold                                : gennbo (NPA and NBO analysis)
   Christopher J. Cramer and Donald G. Truhlar   : smd solvation model
   Lars Goerigk                                  : TD-DFT with DH, B97 family of functionals
   V. Asgeirsson, H. Jonsson                     : NEB implementation
   FAccTs GmbH                                   : IRC, NEB, NEB-TS, DLPNO-Multilevel, CI-OPT
                                                   MM, QMMM, 2- and 3-layer-ONIOM, Crystal-QMMM,
                                                   LR-CPCM, SF, NACMEs, symmetry and pop. for TD-DFT,
                                                   nearIR, NL-DFT gradient (VV10), updates on ESD,
                                                   ML-optimized integration grids
   S Lehtola, MJT Oliveira, MAL Marques          : LibXC Library
   Liviu Ungur et al                             : ANISO software


 Your calculation uses the libint2 library for the computation of 2-el integrals
 For citations please refer to: http://libint.valeyev.net

 Your ORCA version has been built with support for libXC version: 5.1.0
 For citations please refer to: https://tddft.org/programs/libxc/

 This ORCA versions uses:
   CBLAS   interface :  Fast vector & matrix operations
   LAPACKE interface :  Fast linear algebra routines
   SCALAPACK package :  Parallel linear algebra routines
   Shared memory     :  Shared parallel matrices
   BLAS/LAPACK       :  OpenBLAS 0.3.15  USE64BITINT DYNAMIC_ARCH NO_AFFINITY SkylakeX SINGLE_THREADED
        Core in use  :  SkylakeX
   Copyright (c) 2011-2014, The OpenBLAS Project


Your calculation utilizes the atom-pairwise dispersion correction
with the Becke-Johnson damping scheme (D3BJ)
Cite in your paper:
S.Grimme, S.Ehrlich, L.Goerigk, J Comput Chem, (2011), 32, 1456–1465 
S.Grimme, J.Antony, S.Ehrlich and H.Krieg, J.Chem.Phys., 132, (2010), 154104 
   

================================================================================

----- Orbital basis set information -----
Your calculation utilizes the basis: def2-TZVP
   F. Weigend and R. Ahlrichs, Phys. Chem. Chem. Phys. 7, 3297 (2005).

----- AuxJ basis set information -----
Your calculation utilizes the auxiliary basis: def2/J
   F. Weigend, Phys. Chem. Chem. Phys. 8, 1057 (2006).

================================================================================
                                        WARNINGS
                       Please study these warnings very carefully!
================================================================================


WARNING: your system is open-shell and RHF/RKS was chosen
  ===> : WILL SWITCH to UHF/UKS


INFO   : the flag for use of the SHARK integral package has been found!

================================================================================
                                       INPUT FILE
================================================================================
NAME = r0_C5H9O2_sp_orca.inp
|  1> ! SP PBE0 RIJCOSX D3BJ def2-TZVP def2/J 
|  2> %output 
|  3> xyzfile=True 
|  4> end 
|  5> %scf 
|  6> maxiter 250 
|  7> end
|  8> %output
|  9> Print[P_Hirshfeld] = 1
| 10> end
| 11> % maxcore
| 12> 4000
| 13> %pal nprocs 8
| 14> end
| 15> *xyz 0 2
| 16> O    2.13731319  -1.13718955   1.12596952 
| 17> O    1.51767391   0.06137146   0.69663342 
| 18> C    0.71182188  -0.22501330  -0.43277741 
| 19> C   -0.43355853  -1.17933942  -0.08127999 
| 20> C   -1.49094908  -0.27705782   0.46054104 
| 21> C   -1.15627863   1.15847430   0.22844545 
| 22> C    0.01817439   1.09429516  -0.75762534 
| 23> H    3.04722040  -0.99386273   0.82826105 
| 24> H    1.35282938  -0.59936800  -1.25246391 
| 25> H   -0.09111254  -1.95690888   0.62082015 
| 26> H   -0.76796095  -1.71561286  -0.99321242 
| 27> H   -2.36196058  -0.62005495   1.02216445 
| 28> H   -0.83993573   1.64929063   1.17040306 
| 29> H   -2.00459219   1.75238618  -0.15444242 
| 30> H    0.71241645   1.94430837  -0.68713112 
| 31> H   -0.35080141   1.04448143  -1.79430555 
| 32> *
| 33> 
| 34>                          ****END OF INPUT****
================================================================================

                       ****************************
                       * Single Point Calculation *
                       ****************************

---------------------------------
CARTESIAN COORDINATES (ANGSTROEM)
---------------------------------
  O      2.137313   -1.137190    1.125970
  O      1.517674    0.061371    0.696633
  C      0.711822   -0.225013   -0.432777
  C     -0.433559   -1.179339   -0.081280
  C     -1.490949   -0.277058    0.460541
  C     -1.156279    1.158474    0.228445
  C      0.018174    1.094295   -0.757625
  H      3.047220   -0.993863    0.828261
  H      1.352829   -0.599368   -1.252464
  H     -0.091113   -1.956909    0.620820
  H     -0.767961   -1.715613   -0.993212
  H     -2.361961   -0.620055    1.022164
  H     -0.839936    1.649291    1.170403
  H     -2.004592    1.752386   -0.154442
  H      0.712416    1.944308   -0.687131
  H     -0.350801    1.044481   -1.794306

----------------------------
CARTESIAN COORDINATES (A.U.)
----------------------------
  NO LB      ZA    FRAG     MASS         X           Y           Z
   0 O     8.0000    0    15.999    4.038937   -2.148977    2.127774
   1 O     8.0000    0    15.999    2.867988    0.115975    1.316446
   2 C     6.0000    0    12.011    1.345148   -0.425214   -0.817831
   3 C     6.0000    0    12.011   -0.819307   -2.228629   -0.153597
   4 C     6.0000    0    12.011   -2.817485   -0.523563    0.870296
   5 C     6.0000    0    12.011   -2.185050    2.189199    0.431699
   6 C     6.0000    0    12.011    0.034345    2.067918   -1.431704
   7 H     1.0000    0     1.008    5.758412   -1.878128    1.565187
   8 H     1.0000    0     1.008    2.556477   -1.132641   -2.366814
   9 H     1.0000    0     1.008   -0.172178   -3.698022    1.173180
  10 H     1.0000    0     1.008   -1.451236   -3.242038   -1.876899
  11 H     1.0000    0     1.008   -4.463459   -1.171734    1.931611
  12 H     1.0000    0     1.008   -1.587248    3.116708    2.211741
  13 H     1.0000    0     1.008   -3.788130    3.311530   -0.291854
  14 H     1.0000    0     1.008    1.346272    3.674210   -1.298490
  15 H     1.0000    0     1.008   -0.662919    1.973784   -3.390746

--------------------------------
INTERNAL COORDINATES (ANGSTROEM)
--------------------------------
 O      0   0   0     0.000000000000     0.00000000     0.00000000
 O      1   0   0     1.415920484623     0.00000000     0.00000000
 C      2   1   0     1.416680114894   108.63563512     0.00000000
 C      3   2   1     1.531726171087   111.61445049    63.90829879
 C      4   3   2     1.491897077374   103.68128922    83.91500356
 C      5   4   3     1.492188037934   111.49227846    10.31892628
 C      3   2   1     1.525531982830   104.68944338   176.19732717
 H      1   2   3     0.968041342739   101.11394342   106.09887190
 H      3   2   1     1.105856236023   109.24639921   298.05849188
 H      4   3   2     1.102192418673   110.69470088   320.60865746
 H      4   3   2     1.109520138545   109.74902506   203.90666769
 H      5   4   3     1.091663372556   124.21624788   194.61984600
 H      6   5   4     1.108267855354   110.96957805   253.75218693
 H      6   5   4     1.104069897370   113.52312044   134.47686388
 H      7   3   2     1.099756304870   111.57660291    42.83070612
 H      7   3   2     1.101512780901   108.27673589   161.38439373

---------------------------
INTERNAL COORDINATES (A.U.)
---------------------------
 O      0   0   0     0.000000000000     0.00000000     0.00000000
 O      1   0   0     2.675701943346     0.00000000     0.00000000
 C      2   1   0     2.677137436522   108.63563512     0.00000000
 C      3   2   1     2.894542975514   111.61445049    63.90829879
 C      4   3   2     2.819276896235   103.68128922    83.91500356
 C      5   4   3     2.819826732008   111.49227846    10.31892628
 C      3   2   1     2.882837656086   104.68944338   176.19732717
 H      1   2   3     1.829333024089   101.11394342   106.09887190
 H      3   2   1     2.089765429572   109.24639921   298.05849188
 H      4   3   2     2.082841818176   110.69470088   320.60865746
 H      4   3   2     2.096689201920   109.74902506   203.90666769
 H      5   4   3     2.062944804564   124.21624788   194.61984600
 H      6   5   4     2.094322729648   110.96957805   253.75218693
 H      6   5   4     2.086389738735   113.52312044   134.47686388
 H      7   3   2     2.078238230257   111.57660291    42.83070612
 H      7   3   2     2.081557488917   108.27673589   161.38439373

---------------------
BASIS SET INFORMATION
---------------------
There are 3 groups of distinct atoms

 Group   1 Type O   : 11s6p2d1f contracted to 5s3p2d1f pattern {62111/411/11/1}
 Group   2 Type C   : 11s6p2d1f contracted to 5s3p2d1f pattern {62111/411/11/1}
 Group   3 Type H   : 5s1p contracted to 3s1p pattern {311/1}

Atom   0O    basis set group =>   1
Atom   1O    basis set group =>   1
Atom   2C    basis set group =>   2
Atom   3C    basis set group =>   2
Atom   4C    basis set group =>   2
Atom   5C    basis set group =>   2
Atom   6C    basis set group =>   2
Atom   7H    basis set group =>   3
Atom   8H    basis set group =>   3
Atom   9H    basis set group =>   3
Atom  10H    basis set group =>   3
Atom  11H    basis set group =>   3
Atom  12H    basis set group =>   3
Atom  13H    basis set group =>   3
Atom  14H    basis set group =>   3
Atom  15H    basis set group =>   3
---------------------------------
AUXILIARY/J BASIS SET INFORMATION
---------------------------------
There are 3 groups of distinct atoms

 Group   1 Type O   : 12s5p4d2f1g contracted to 6s4p3d1f1g pattern {711111/2111/211/2/1}
 Group   2 Type C   : 12s5p4d2f1g contracted to 6s4p3d1f1g pattern {711111/2111/211/2/1}
 Group   3 Type H   : 5s2p1d contracted to 3s1p1d pattern {311/2/1}

Atom   0O    basis set group =>   1
Atom   1O    basis set group =>   1
Atom   2C    basis set group =>   2
Atom   3C    basis set group =>   2
Atom   4C    basis set group =>   2
Atom   5C    basis set group =>   2
Atom   6C    basis set group =>   2
Atom   7H    basis set group =>   3
Atom   8H    basis set group =>   3
Atom   9H    basis set group =>   3
Atom  10H    basis set group =>   3
Atom  11H    basis set group =>   3
Atom  12H    basis set group =>   3
Atom  13H    basis set group =>   3
Atom  14H    basis set group =>   3
Atom  15H    basis set group =>   3


           ************************************************************
           *        Program running with 8 parallel MPI-processes     *
           *              working on a common directory               *
           ************************************************************
------------------------------------------------------------------------------
                           ORCA GTO INTEGRAL CALCULATION
                           -- RI-GTO INTEGRALS CHOSEN --
------------------------------------------------------------------------------
------------------------------------------------------------------------------
                   ___                                                        
                  /   \      - P O W E R E D   B Y -                         
                 /     \                                                     
                 |  |  |   _    _      __       _____    __    __             
                 |  |  |  | |  | |    /  \     |  _  \  |  |  /  |          
                  \  \/   | |  | |   /    \    | | | |  |  | /  /          
                 / \  \   | |__| |  /  /\  \   | |_| |  |  |/  /          
                |  |  |   |  __  | /  /__\  \  |    /   |      \           
                |  |  |   | |  | | |   __   |  |    \   |  |\   \          
                \     /   | |  | | |  |  |  |  | |\  \  |  | \   \       
                 \___/    |_|  |_| |__|  |__|  |_| \__\ |__|  \__/        
                                                                              
                      - O R C A' S   B I G   F R I E N D -                    
                                      &                                       
                       - I N T E G R A L  F E E D E R -                       
                                                                              
 v1 FN, 2020, v2 2021                                                         
------------------------------------------------------------------------------


Reading SHARK input file r0_C5H9O2_sp_orca.SHARKINP.tmp ... ok
----------------------
SHARK INTEGRAL PACKAGE
----------------------

Number of atoms                             ...     16
Number of basis functions                   ...    271
Number of shells                            ...    113
Maximum angular momentum                    ...      3
Integral batch strategy                     ... SHARK/LIBINT Hybrid
RI-J (if used) integral strategy            ... SPLIT-RIJ (Revised 2003 algorithm where possible)
Printlevel                                  ...      1
Contraction scheme used                     ... SEGMENTED contraction
Coulomb Range Separation                    ... NOT USED
Exchange Range Separation                   ... NOT USED
Finite Nucleus Model                        ... NOT USED
Auxiliary Coulomb fitting basis             ... AVAILABLE
   # of basis functions in Aux-J            ...    442
   # of shells in Aux-J                     ...    150
   Maximum angular momentum in Aux-J        ...      4
Auxiliary J/K fitting basis                 ... NOT available
Auxiliary Correlation fitting basis         ... NOT available
Auxiliary 'external' fitting basis          ... NOT available
Integral threshold                          ...     1.000000e-10
Primitive cut-off                           ...     1.000000e-11
Primitive pair pre-selection threshold      ...     1.000000e-11

Calculating pre-screening integrals         ... done (  0.0 sec) Dimension = 113
Organizing shell pair data                  ... done (  0.0 sec)
Shell pair information
Total number of shell pairs                 ...      6441
Shell pairs after pre-screening             ...      6034
Total number of primitive shell pairs       ...     19096
Primitive shell pairs kept                  ...     13716
          la=0 lb=0:   1768 shell pairs
          la=1 lb=0:   1750 shell pairs
          la=1 lb=1:    451 shell pairs
          la=2 lb=0:    819 shell pairs
          la=2 lb=1:    406 shell pairs
          la=2 lb=2:    102 shell pairs
          la=3 lb=0:    408 shell pairs
          la=3 lb=1:    206 shell pairs
          la=3 lb=2:     96 shell pairs
          la=3 lb=3:     28 shell pairs

Calculating one electron integrals          ... done (  0.0 sec)
Calculating RI/J V-Matrix + Cholesky decomp.... done (  0.0 sec)
Calculating Nuclear repulsion               ... done (  0.0 sec) ENN=    322.389748745536 Eh

SHARK setup successfully completed in   0.3 seconds

Maximum memory used throughout the entire GTOINT-calculation: 19.4 MB


           ************************************************************
           *        Program running with 8 parallel MPI-processes     *
           *              working on a common directory               *
           ************************************************************
-------------------------------------------------------------------------------
                                 ORCA SCF
-------------------------------------------------------------------------------

------------
SCF SETTINGS
------------
Hamiltonian:
 Density Functional     Method          .... DFT(GTOs)
 Exchange Functional    Exchange        .... PBE
   PBE kappa parameter   XKappa         ....  0.804000
   PBE mue parameter    XMuePBE         ....  0.219520
 Correlation Functional Correlation     .... PBE
   PBE beta parameter  CBetaPBE         ....  0.066725
 LDA part of GGA corr.  LDAOpt          .... PW91-LDA
 Gradients option       PostSCFGGA      .... off
 Hybrid DFT is turned on
   Fraction HF Exchange ScalHFX         ....  0.250000
   Scaling of DF-GGA-X  ScalDFX         ....  0.750000
   Scaling of DF-GGA-C  ScalDFC         ....  1.000000
   Scaling of DF-LDA-C  ScalLDAC        ....  1.000000
   Perturbative correction              ....  0.000000
   Density functional embedding theory  .... OFF
   NL short-range parameter             ....  6.900000
 RI-approximation to the Coulomb term is turned on
   Number of AuxJ basis functions       .... 442
   RIJ-COSX (HFX calculated with COS-X)).... on


General Settings:
 Integral files         IntName         .... r0_C5H9O2_sp_orca
 Hartree-Fock type      HFTyp           .... UHF
 Total Charge           Charge          ....    0
 Multiplicity           Mult            ....    2
 Number of Electrons    NEL             ....   55
 Basis Dimension        Dim             ....  271
 Nuclear Repulsion      ENuc            ....    322.3897487455 Eh

Convergence Acceleration:
 DIIS                   CNVDIIS         .... on
   Start iteration      DIISMaxIt       ....    12
   Startup error        DIISStart       ....  0.200000
   # of expansion vecs  DIISMaxEq       ....     5
   Bias factor          DIISBfac        ....   1.050
   Max. coefficient     DIISMaxC        ....  10.000
 Trust-Rad. Augm. Hess. CNVTRAH         .... auto
   Auto Start mean grad. ratio tolernc. ....  1.125000
   Auto Start start iteration           ....    20
   Auto Start num. interpolation iter.  ....    10
   Max. Number of Micro iterations      ....    16
   Max. Number of Macro iterations      .... Maxiter - #DIIS iter
   Number of Davidson start vectors     ....     2
   Converg. threshold I  (grad. norm)   ....   5.000e-05
   Converg. threshold II (energy diff.) ....   1.000e-06
   Grad. Scal. Fac. for Micro threshold ....   0.100
   Minimum threshold for Micro iter.    ....   0.010
   NR start threshold (gradient norm)   ....   0.001
   Initial trust radius                 ....   0.400
   Minimum AH scaling param. (alpha)    ....   1.000
   Maximum AH scaling param. (alpha)    .... 1000.000
   Orbital update algorithm             .... Taylor
   White noise on init. David. guess    .... on
   Maximum white noise                  ....   0.010
   Quad. conv. algorithm                .... NR
 SOSCF                  CNVSOSCF        .... off
 Level Shifting         CNVShift        .... on
   Level shift para.    LevelShift      ....    0.2500
   Turn off err/grad.   ShiftErr        ....    0.0010
 Zerner damping         CNVZerner       .... off
 Static damping         CNVDamp         .... on
   Fraction old density DampFac         ....    0.7000
   Max. Damping (<1)    DampMax         ....    0.9800
   Min. Damping (>=0)   DampMin         ....    0.0000
   Turn off err/grad.   DampErr         ....    0.1000
 Fernandez-Rico         CNVRico         .... off

SCF Procedure:
 Maximum # iterations   MaxIter         ....   250
 SCF integral mode      SCFMode         .... Direct
   Integral package                     .... SHARK and LIBINT hybrid scheme
 Reset frequency        DirectResetFreq ....    20
 Integral Threshold     Thresh          ....  1.000e-10 Eh
 Primitive CutOff       TCut            ....  1.000e-11 Eh

Convergence Tolerance:
 Convergence Check Mode ConvCheckMode   .... Total+1el-Energy
 Convergence forced     ConvForced      .... 0
 Energy Change          TolE            ....  1.000e-06 Eh
 1-El. energy change                    ....  1.000e-03 Eh
 DIIS Error             TolErr          ....  1.000e-06


Diagonalization of the overlap matrix:
Smallest eigenvalue                        ... 1.087e-04
Time for diagonalization                   ...    0.009 sec
Threshold for overlap eigenvalues          ... 1.000e-08
Number of eigenvalues below threshold      ... 0
Time for construction of square roots      ...    0.005 sec
Total time needed                          ...    0.014 sec

Time for model grid setup =    0.052 sec

------------------------------
INITIAL GUESS: MODEL POTENTIAL
------------------------------
Loading Hartree-Fock densities                     ... done
Calculating cut-offs                               ... done
Initializing the effective Hamiltonian             ... done
Setting up the integral package (SHARK)            ... done
Starting the Coulomb interaction                   ... done (   0.1 sec)
Reading the grid                                   ... done
Mapping shells                                     ... done
Starting the XC term evaluation                    ... done (   0.1 sec)
  promolecular density results
     # of electrons  =     54.995697611
     EX              =    -44.493505332
     EC              =     -1.828278984
     EX+EC           =    -46.321784316
Transforming the Hamiltonian                       ... done (   0.0 sec)
Diagonalizing the Hamiltonian                      ... done (   0.0 sec)
Back transforming the eigenvectors                 ... done (   0.0 sec)
Now organizing SCF variables                       ... done
                      ------------------
                      INITIAL GUESS DONE (   0.2 sec)
                      ------------------
-------------------
DFT GRID GENERATION
-------------------

General Integration Accuracy     IntAcc      ... 4.388
Radial Grid Type                 RadialGrid  ... OptM3 with GC (2021)
Angular Grid (max. ang.)         AngularGrid ... 4 (Lebedev-302)
Angular grid pruning method      GridPruning ... 4 (adaptive)
Weight generation scheme         WeightScheme... Becke
Basis function cutoff            BFCut       ... 1.0000e-10
Integration weight cutoff        WCut        ... 1.0000e-14
Angular grids for H and He will be reduced by one unit
Partially contracted basis set               ... off
Rotationally invariant grid construction     ... off

Total number of grid points                  ...    71132
Total number of batches                      ...     1120
Average number of points per batch           ...       63
Average number of grid points per atom       ...     4446
Time for grid setup =    0.283 sec

--------------------
COSX GRID GENERATION
--------------------

GRIDX 1
-------
General Integration Accuracy     IntAcc      ... 3.816
Radial Grid Type                 RadialGrid  ... OptM3 with GC (2021)
Angular Grid (max. ang.)         AngularGrid ... 1 (Lebedev-50)
Angular grid pruning method      GridPruning ... 4 (adaptive)
Weight generation scheme         WeightScheme... Becke
Basis function cutoff            BFCut       ... 1.0000e-10
Integration weight cutoff        WCut        ... 1.0000e-14
Angular grids for H and He will be reduced by one unit
Partially contracted basis set               ... on
Rotationally invariant grid construction     ... off

Total number of grid points                  ...     9106
Total number of batches                      ...      152
Average number of points per batch           ...       59
Average number of grid points per atom       ...      569
UseSFitting                                  ... on

GRIDX 2
-------
General Integration Accuracy     IntAcc      ... 4.020
Radial Grid Type                 RadialGrid  ... OptM3 with GC (2021)
Angular Grid (max. ang.)         AngularGrid ... 2 (Lebedev-110)
Angular grid pruning method      GridPruning ... 4 (adaptive)
Weight generation scheme         WeightScheme... Becke
Basis function cutoff            BFCut       ... 1.0000e-10
Integration weight cutoff        WCut        ... 1.0000e-14
Angular grids for H and He will be reduced by one unit
Partially contracted basis set               ... on
Rotationally invariant grid construction     ... off

Total number of grid points                  ...    19465
Total number of batches                      ...      313
Average number of points per batch           ...       62
Average number of grid points per atom       ...     1217
UseSFitting                                  ... on

GRIDX 3
-------
General Integration Accuracy     IntAcc      ... 4.338
Radial Grid Type                 RadialGrid  ... OptM3 with GC (2021)
Angular Grid (max. ang.)         AngularGrid ... 3 (Lebedev-194)
Angular grid pruning method      GridPruning ... 4 (adaptive)
Weight generation scheme         WeightScheme... Becke
Basis function cutoff            BFCut       ... 1.0000e-10
Integration weight cutoff        WCut        ... 1.0000e-14
Angular grids for H and He will be reduced by one unit
Partially contracted basis set               ... on
Rotationally invariant grid construction     ... off

Total number of grid points                  ...    42632
Total number of batches                      ...      673
Average number of points per batch           ...       63
Average number of grid points per atom       ...     2664
UseSFitting                                  ... on

Time for X-Grid setup             =    0.250 sec

--------------
SCF ITERATIONS
--------------
ITER       Energy         Delta-E        Max-DP      RMS-DP      [F,P]     Damp
               ***  Starting incremental Fock matrix formation  ***
  0   -345.8145853655   0.000000000000 0.02236043  0.00046885  0.0789883 0.7000
  1   -345.8904412339  -0.075855868408 0.01861061  0.00036506  0.0402963 0.7000
                               ***Turning on DIIS***
  2   -345.9225430497  -0.032101815886 0.02999520  0.00062981  0.0169583 0.0000
  3   -345.9709508537  -0.048407803997 0.01450067  0.00027978  0.0205455 0.0000
  4   -345.9829926696  -0.012041815854 0.00431174  0.00007848  0.0033210 0.0000
  5   -345.9833611432  -0.000368473630 0.00171895  0.00003436  0.0011201 0.0000
  6   -345.9833988998  -0.000037756569 0.00073944  0.00001549  0.0011250 0.0000
  7   -345.9834140148  -0.000015114979 0.00058197  0.00001285  0.0003785 0.0000
               *** Restarting incremental Fock matrix formation ***
                                   *** Resetting DIIS ***
  8   -345.9834085226   0.000005492199 0.00017893  0.00000393  0.0001312 0.0000
  9   -345.9834083689   0.000000153709 0.00007653  0.00000195  0.0002502 0.0000
                 **** Energy Check signals convergence ****

               *****************************************************
               *                     SUCCESS                       *
               *           SCF CONVERGED AFTER  10 CYCLES          *
               *****************************************************

Old exchange energy                            =    -11.383196232 Eh
New exchange energy                            =    -11.383186546 Eh
Exchange energy change after final integration =      0.000009686 Eh
Total energy after final integration           =   -345.983399162 Eh
Final COS-X integration done in                =     2.591 sec

----------------
TOTAL SCF ENERGY
----------------

Total Energy       :         -345.98339916 Eh           -9414.68692 eV

Components:
Nuclear Repulsion  :          322.38974875 Eh            8772.67106 eV
Electronic Energy  :         -668.37314791 Eh          -18187.35798 eV
One Electron Energy:        -1109.88214665 Eh          -30201.42862 eV
Two Electron Energy:          441.50899874 Eh           12014.07064 eV
Max COSX asymmetry :            0.00000075 Eh               0.00002 eV

Virial components:
Potential Energy   :         -690.33940844 Eh          -18785.09032 eV
Kinetic Energy     :          344.35600927 Eh            9370.40339 eV
Virial Ratio       :            2.00472589


DFT components:
N(Alpha)           :       28.000021377259 electrons
N(Beta)            :       27.000006619262 electrons
N(Total)           :       55.000027996521 electrons
E(X)               :      -34.056834949952 Eh       
E(C)               :       -1.828731061927 Eh       
E(XC)              :      -35.885566011879 Eh       
DFET-embed. en.    :        0.000000000000 Eh       

---------------
SCF CONVERGENCE
---------------

  Last Energy change         ...   -4.7834e-07  Tolerance :   1.0000e-06
  Last MAX-Density change    ...    0.0000e+00  Tolerance :   1.0000e-05
  Last RMS-Density change    ...    0.0000e+00  Tolerance :   1.0000e-06
  Last DIIS Error            ...    4.7323e-05  Tolerance :   1.0000e-06

             **** THE GBW FILE WAS UPDATED (r0_C5H9O2_sp_orca.gbw) ****
             **** DENSITY r0_C5H9O2_sp_orca.scfp WAS UPDATED ****
             **** ENERGY FILE WAS UPDATED (r0_C5H9O2_sp_orca.en.tmp) ****
----------------------
UHF SPIN CONTAMINATION
----------------------

Warning: in a DFT calculation there is little theoretical justification to 
         calculate <S**2> as in Hartree-Fock theory. We will do it anyways
         but you should keep in mind that the values have only limited relevance

Expectation value of <S**2>     :     0.755496
Ideal value S*(S+1) for S=0.5   :     0.750000
Deviation                       :     0.005496

             **** THE GBW FILE WAS UPDATED (r0_C5H9O2_sp_orca.gbw) ****
             **** DENSITY r0_C5H9O2_sp_orca.scfp WAS UPDATED ****
----------------
ORBITAL ENERGIES
----------------
                 SPIN UP ORBITALS
  NO   OCC          E(Eh)            E(eV) 
   0   1.0000     -19.260710      -524.1106 
   1   1.0000     -19.258116      -524.0400 
   2   1.0000     -10.274333      -279.5788 
   3   1.0000     -10.224737      -278.2292 
   4   1.0000     -10.224371      -278.2193 
   5   1.0000     -10.220672      -278.1186 
   6   1.0000     -10.218135      -278.0496 
   7   1.0000      -1.163945       -31.6726 
   8   1.0000      -0.947006       -25.7693 
   9   1.0000      -0.850418       -23.1410 
  10   1.0000      -0.738685       -20.1006 
  11   1.0000      -0.718548       -19.5527 
  12   1.0000      -0.595188       -16.1959 
  13   1.0000      -0.580150       -15.7867 
  14   1.0000      -0.536978       -14.6119 
  15   1.0000      -0.523667       -14.2497 
  16   1.0000      -0.505993       -13.7688 
  17   1.0000      -0.456371       -12.4185 
  18   1.0000      -0.442937       -12.0529 
  19   1.0000      -0.413835       -11.2610 
  20   1.0000      -0.381848       -10.3906 
  21   1.0000      -0.373897       -10.1743 
  22   1.0000      -0.364173        -9.9097 
  23   1.0000      -0.363239        -9.8842 
  24   1.0000      -0.350845        -9.5470 
  25   1.0000      -0.311443        -8.4748 
  26   1.0000      -0.279838        -7.6148 
  27   1.0000      -0.195666        -5.3244 
  28   0.0000       0.035444         0.9645 
  29   0.0000       0.040553         1.1035 
  30   0.0000       0.073993         2.0135 
  31   0.0000       0.081937         2.2296 
  32   0.0000       0.097211         2.6452 
  33   0.0000       0.099151         2.6980 
  34   0.0000       0.107293         2.9196 
  35   0.0000       0.118305         3.2192 
  36   0.0000       0.132216         3.5978 
  37   0.0000       0.141764         3.8576 
  38   0.0000       0.160033         4.3547 
  39   0.0000       0.169383         4.6091 
  40   0.0000       0.175995         4.7891 
  41   0.0000       0.185611         5.0507 
  42   0.0000       0.205659         5.5963 
  43   0.0000       0.233222         6.3463 
  44   0.0000       0.245381         6.6772 
  45   0.0000       0.264265         7.1910 
  46   0.0000       0.289362         7.8739 
  47   0.0000       0.295124         8.0307 
  48   0.0000       0.314346         8.5538 
  49   0.0000       0.334181         9.0935 
  50   0.0000       0.352283         9.5861 
  51   0.0000       0.364467         9.9177 
  52   0.0000       0.381575        10.3832 
  53   0.0000       0.389251        10.5921 
  54   0.0000       0.399612        10.8740 
  55   0.0000       0.412850        11.2342 
  56   0.0000       0.417431        11.3589 
  57   0.0000       0.423975        11.5369 
  58   0.0000       0.429440        11.6857 
  59   0.0000       0.435411        11.8481 
  60   0.0000       0.439693        11.9647 
  61   0.0000       0.443603        12.0711 
  62   0.0000       0.453711        12.3461 
  63   0.0000       0.457558        12.4508 
  64   0.0000       0.464556        12.6412 
  65   0.0000       0.472958        12.8699 
  66   0.0000       0.496831        13.5195 
  67   0.0000       0.500915        13.6306 
  68   0.0000       0.510794        13.8994 
  69   0.0000       0.523484        14.2447 
  70   0.0000       0.556273        15.1370 
  71   0.0000       0.573060        15.5937 
  72   0.0000       0.599102        16.3024 
  73   0.0000       0.603300        16.4166 
  74   0.0000       0.618736        16.8367 
  75   0.0000       0.665073        18.0976 
  76   0.0000       0.678195        18.4546 
  77   0.0000       0.691530        18.8175 
  78   0.0000       0.752385        20.4734 
  79   0.0000       0.759477        20.6664 
  80   0.0000       0.826242        22.4832 
  81   0.0000       0.845094        22.9962 
  82   0.0000       0.852354        23.1937 
  83   0.0000       0.869887        23.6708 
  84   0.0000       0.900091        24.4927 
  85   0.0000       0.922586        25.1048 
  86   0.0000       0.929524        25.2936 
  87   0.0000       0.947902        25.7937 
  88   0.0000       0.978726        26.6325 
  89   0.0000       0.982205        26.7272 
  90   0.0000       0.999124        27.1875 
  91   0.0000       1.050064        28.5737 
  92   0.0000       1.057264        28.7696 
  93   0.0000       1.091062        29.6893 
  94   0.0000       1.103665        30.0322 
  95   0.0000       1.129372        30.7318 
  96   0.0000       1.151201        31.3258 
  97   0.0000       1.154909        31.4267 
  98   0.0000       1.173026        31.9197 
  99   0.0000       1.184357        32.2280 
 100   0.0000       1.205181        32.7946 
 101   0.0000       1.216717        33.1085 
 102   0.0000       1.247553        33.9477 
 103   0.0000       1.262436        34.3526 
 104   0.0000       1.300306        35.3831 
 105   0.0000       1.334651        36.3177 
 106   0.0000       1.397169        38.0189 
 107   0.0000       1.407843        38.3094 
 108   0.0000       1.478078        40.2205 
 109   0.0000       1.489086        40.5201 
 110   0.0000       1.519704        41.3532 
 111   0.0000       1.545916        42.0665 
 112   0.0000       1.571001        42.7491 
 113   0.0000       1.598626        43.5008 
 114   0.0000       1.602416        43.6039 
 115   0.0000       1.616445        43.9857 
 116   0.0000       1.620746        44.1027 
 117   0.0000       1.645271        44.7701 
 118   0.0000       1.658537        45.1311 
 119   0.0000       1.675422        45.5905 
 120   0.0000       1.707080        46.4520 
 121   0.0000       1.772698        48.2376 
 122   0.0000       1.778099        48.3845 
 123   0.0000       1.790239        48.7149 
 124   0.0000       1.820102        49.5275 
 125   0.0000       1.838910        50.0393 
 126   0.0000       1.852119        50.3987 
 127   0.0000       1.871825        50.9349 
 128   0.0000       1.888182        51.3800 
 129   0.0000       1.925429        52.3936 
 130   0.0000       1.944512        52.9129 
 131   0.0000       1.984347        53.9968 
 132   0.0000       2.014925        54.8289 
 133   0.0000       2.018571        54.9281 
 134   0.0000       2.044135        55.6237 
 135   0.0000       2.070768        56.3485 
 136   0.0000       2.091026        56.8997 
 137   0.0000       2.120332        57.6972 
 138   0.0000       2.128098        57.9085 
 139   0.0000       2.135688        58.1150 
 140   0.0000       2.157050        58.6963 
 141   0.0000       2.181485        59.3612 
 142   0.0000       2.208457        60.0952 
 143   0.0000       2.253283        61.3150 
 144   0.0000       2.274315        61.8873 
 145   0.0000       2.297610        62.5211 
 146   0.0000       2.328809        63.3701 
 147   0.0000       2.370525        64.5053 
 148   0.0000       2.382231        64.8238 
 149   0.0000       2.401065        65.3363 
 150   0.0000       2.431609        66.1674 
 151   0.0000       2.451788        66.7166 
 152   0.0000       2.480018        67.4847 
 153   0.0000       2.501280        68.0633 
 154   0.0000       2.515439        68.4486 
 155   0.0000       2.546329        69.2891 
 156   0.0000       2.559093        69.6365 
 157   0.0000       2.574512        70.0560 
 158   0.0000       2.582538        70.2744 
 159   0.0000       2.617674        71.2305 
 160   0.0000       2.632241        71.6269 
 161   0.0000       2.659497        72.3686 
 162   0.0000       2.664434        72.5029 
 163   0.0000       2.675643        72.8080 
 164   0.0000       2.687039        73.1180 
 165   0.0000       2.706306        73.6423 
 166   0.0000       2.737562        74.4928 
 167   0.0000       2.760937        75.1289 
 168   0.0000       2.777373        75.5762 
 169   0.0000       2.801047        76.2204 
 170   0.0000       2.823369        76.8278 
 171   0.0000       2.832946        77.0884 
 172   0.0000       2.898813        78.8807 
 173   0.0000       2.903723        79.0143 
 174   0.0000       2.924484        79.5793 
 175   0.0000       2.942109        80.0589 
 176   0.0000       2.961048        80.5742 
 177   0.0000       2.979429        81.0744 
 178   0.0000       2.993236        81.4501 
 179   0.0000       3.022212        82.2386 
 180   0.0000       3.057686        83.2039 
 181   0.0000       3.091368        84.1204 
 182   0.0000       3.118175        84.8499 
 183   0.0000       3.129783        85.1657 
 184   0.0000       3.139490        85.4299 
 185   0.0000       3.150816        85.7381 
 186   0.0000       3.173873        86.3655 
 187   0.0000       3.210859        87.3719 
 188   0.0000       3.255440        88.5850 
 189   0.0000       3.268714        88.9462 
 190   0.0000       3.297427        89.7276 
 191   0.0000       3.307798        90.0098 
 192   0.0000       3.327897        90.5567 
 193   0.0000       3.334930        90.7481 
 194   0.0000       3.359411        91.4142 
 195   0.0000       3.392258        92.3080 
 196   0.0000       3.438484        93.5659 
 197   0.0000       3.453360        93.9707 
 198   0.0000       3.480070        94.6975 
 199   0.0000       3.483312        94.7857 
 200   0.0000       3.501690        95.2858 
 201   0.0000       3.508935        95.4830 
 202   0.0000       3.542880        96.4067 
 203   0.0000       3.563946        96.9799 
 204   0.0000       3.595155        97.8291 
 205   0.0000       3.623121        98.5901 
 206   0.0000       3.676429       100.0407 
 207   0.0000       3.700258       100.6891 
 208   0.0000       3.772697       102.6603 
 209   0.0000       3.778958       102.8307 
 210   0.0000       3.798369       103.3589 
 211   0.0000       3.876198       105.4767 
 212   0.0000       3.897544       106.0576 
 213   0.0000       3.925674       106.8230 
 214   0.0000       3.954692       107.6126 
 215   0.0000       3.992428       108.6395 
 216   0.0000       4.016983       109.3077 
 217   0.0000       4.049607       110.1954 
 218   0.0000       4.086885       111.2098 
 219   0.0000       4.122226       112.1715 
 220   0.0000       4.177638       113.6793 
 221   0.0000       4.210849       114.5830 
 222   0.0000       4.227943       115.0482 
 223   0.0000       4.248018       115.5945 
 224   0.0000       4.268682       116.1567 
 225   0.0000       4.304687       117.1365 
 226   0.0000       4.353729       118.4710 
 227   0.0000       4.385348       119.3314 
 228   0.0000       4.447629       121.0261 
 229   0.0000       4.491986       122.2332 
 230   0.0000       4.521695       123.0416 
 231   0.0000       4.548155       123.7616 
 232   0.0000       4.665134       126.9448 
 233   0.0000       4.704696       128.0213 
 234   0.0000       4.728326       128.6643 
 235   0.0000       4.795937       130.5041 
 236   0.0000       4.830682       131.4495 
 237   0.0000       4.896322       133.2357 
 238   0.0000       4.917280       133.8060 
 239   0.0000       4.925087       134.0184 
 240   0.0000       4.975201       135.3821 
 241   0.0000       5.027272       136.7990 
 242   0.0000       5.070647       137.9793 
 243   0.0000       5.092240       138.5669 
 244   0.0000       5.254775       142.9897 
 245   0.0000       5.370978       146.1517 
 246   0.0000       5.495380       149.5369 
 247   0.0000       5.588000       152.0572 
 248   0.0000       5.797483       157.7575 
 249   0.0000       5.877833       159.9440 
 250   0.0000       5.951808       161.9569 
 251   0.0000       6.103931       166.0964 
 252   0.0000       6.184407       168.2863 
 253   0.0000       6.409804       174.4196 
 254   0.0000       6.426421       174.8718 
 255   0.0000       6.470938       176.0832 
 256   0.0000       6.685048       181.9094 
 257   0.0000       6.727052       183.0524 
 258   0.0000       6.805674       185.1918 
 259   0.0000       6.901676       187.8041 
 260   0.0000       7.120886       193.7692 
 261   0.0000       7.257234       197.4794 
 262   0.0000       7.298354       198.5983 
 263   0.0000       8.194607       222.9866 
 264   0.0000      22.260286       605.7332 
 265   0.0000      22.506391       612.4300 
 266   0.0000      22.535684       613.2271 
 267   0.0000      22.614180       615.3631 
 268   0.0000      22.696875       617.6134 
 269   0.0000      43.624977      1187.0960 
 270   0.0000      44.293617      1205.2906 

                 SPIN DOWN ORBITALS
  NO   OCC          E(Eh)            E(eV) 
   0   1.0000     -19.260737      -524.1113 
   1   1.0000     -19.258075      -524.0389 
   2   1.0000     -10.274225      -279.5759 
   3   1.0000     -10.224654      -278.2270 
   4   1.0000     -10.221703      -278.1467 
   5   1.0000     -10.219165      -278.0776 
   6   1.0000     -10.209254      -277.8079 
   7   1.0000      -1.163909       -31.6716 
   8   1.0000      -0.946446       -25.7541 
   9   1.0000      -0.841544       -22.8996 
  10   1.0000      -0.735462       -20.0129 
  11   1.0000      -0.706482       -19.2244 
  12   1.0000      -0.593472       -16.1492 
  13   1.0000      -0.565498       -15.3880 
  14   1.0000      -0.531795       -14.4709 
  15   1.0000      -0.520630       -14.1671 
  16   1.0000      -0.502421       -13.6716 
  17   1.0000      -0.451200       -12.2778 
  18   1.0000      -0.437903       -11.9159 
  19   1.0000      -0.404342       -11.0027 
  20   1.0000      -0.377146       -10.2627 
  21   1.0000      -0.367195        -9.9919 
  22   1.0000      -0.360288        -9.8039 
  23   1.0000      -0.357541        -9.7292 
  24   1.0000      -0.349470        -9.5096 
  25   1.0000      -0.311140        -8.4666 
  26   1.0000      -0.279394        -7.6027 
  27   0.0000      -0.027896        -0.7591 
  28   0.0000       0.035746         0.9727 
  29   0.0000       0.042071         1.1448 
  30   0.0000       0.076334         2.0771 
  31   0.0000       0.084787         2.3072 
  32   0.0000       0.099384         2.7044 
  33   0.0000       0.101733         2.7683 
  34   0.0000       0.114325         3.1109 
  35   0.0000       0.120296         3.2734 
  36   0.0000       0.135626         3.6906 
  37   0.0000       0.144544         3.9332 
  38   0.0000       0.162050         4.4096 
  39   0.0000       0.172304         4.6886 
  40   0.0000       0.178674         4.8620 
  41   0.0000       0.188651         5.1335 
  42   0.0000       0.207180         5.6376 
  43   0.0000       0.235743         6.4149 
  44   0.0000       0.247871         6.7449 
  45   0.0000       0.271304         7.3825 
  46   0.0000       0.292600         7.9621 
  47   0.0000       0.328589         8.9414 
  48   0.0000       0.334271         9.0960 
  49   0.0000       0.344740         9.3808 
  50   0.0000       0.356286         9.6950 
  51   0.0000       0.368049        10.0151 
  52   0.0000       0.384115        10.4523 
  53   0.0000       0.392710        10.6862 
  54   0.0000       0.400905        10.9092 
  55   0.0000       0.417754        11.3677 
  56   0.0000       0.419676        11.4200 
  57   0.0000       0.430625        11.7179 
  58   0.0000       0.435693        11.8558 
  59   0.0000       0.441189        12.0054 
  60   0.0000       0.442407        12.0385 
  61   0.0000       0.447327        12.1724 
  62   0.0000       0.456721        12.4280 
  63   0.0000       0.460048        12.5185 
  64   0.0000       0.468153        12.7391 
  65   0.0000       0.475152        12.9296 
  66   0.0000       0.500692        13.6245 
  67   0.0000       0.505614        13.7584 
  68   0.0000       0.515097        14.0165 
  69   0.0000       0.528139        14.3714 
  70   0.0000       0.558812        15.2060 
  71   0.0000       0.576857        15.6971 
  72   0.0000       0.603332        16.4175 
  73   0.0000       0.606168        16.4947 
  74   0.0000       0.626399        17.0452 
  75   0.0000       0.668112        18.1803 
  76   0.0000       0.681794        18.5526 
  77   0.0000       0.694724        18.9044 
  78   0.0000       0.758368        20.6362 
  79   0.0000       0.763903        20.7868 
  80   0.0000       0.828629        22.5481 
  81   0.0000       0.851239        23.1634 
  82   0.0000       0.858298        23.3555 
  83   0.0000       0.872104        23.7312 
  84   0.0000       0.908557        24.7231 
  85   0.0000       0.924345        25.1527 
  86   0.0000       0.933945        25.4139 
  87   0.0000       0.950792        25.8724 
  88   0.0000       0.984572        26.7916 
  89   0.0000       0.994334        27.0572 
  90   0.0000       1.004645        27.3378 
  91   0.0000       1.059078        28.8190 
  92   0.0000       1.067774        29.0556 
  93   0.0000       1.097550        29.8659 
  94   0.0000       1.109014        30.1778 
  95   0.0000       1.147511        31.2254 
  96   0.0000       1.153489        31.3880 
  97   0.0000       1.157536        31.4982 
  98   0.0000       1.181014        32.1370 
  99   0.0000       1.191769        32.4297 
 100   0.0000       1.209709        32.9178 
 101   0.0000       1.230119        33.4732 
 102   0.0000       1.252503        34.0823 
 103   0.0000       1.266872        34.4733 
 104   0.0000       1.303103        35.4592 
 105   0.0000       1.338131        36.4124 
 106   0.0000       1.400548        38.1109 
 107   0.0000       1.416819        38.5536 
 108   0.0000       1.481011        40.3004 
 109   0.0000       1.504612        40.9426 
 110   0.0000       1.546987        42.0956 
 111   0.0000       1.559916        42.4475 
 112   0.0000       1.585275        43.1375 
 113   0.0000       1.600609        43.5548 
 114   0.0000       1.605415        43.6856 
 115   0.0000       1.618823        44.0504 
 116   0.0000       1.621651        44.1274 
 117   0.0000       1.647273        44.8246 
 118   0.0000       1.663289        45.2604 
 119   0.0000       1.677970        45.6599 
 120   0.0000       1.709030        46.5051 
 121   0.0000       1.776096        48.3300 
 122   0.0000       1.783606        48.5344 
 123   0.0000       1.791920        48.7606 
 124   0.0000       1.825742        49.6810 
 125   0.0000       1.841093        50.0987 
 126   0.0000       1.855467        50.4898 
 127   0.0000       1.873663        50.9850 
 128   0.0000       1.892969        51.5103 
 129   0.0000       1.931733        52.5651 
 130   0.0000       1.950366        53.0721 
 131   0.0000       1.993940        54.2579 
 132   0.0000       2.021977        55.0208 
 133   0.0000       2.026469        55.1430 
 134   0.0000       2.048960        55.7550 
 135   0.0000       2.082280        56.6617 
 136   0.0000       2.097371        57.0724 
 137   0.0000       2.127268        57.8859 
 138   0.0000       2.130380        57.9706 
 139   0.0000       2.148847        58.4731 
 140   0.0000       2.162329        58.8400 
 141   0.0000       2.186238        59.4906 
 142   0.0000       2.212754        60.2121 
 143   0.0000       2.256683        61.4075 
 144   0.0000       2.278711        62.0069 
 145   0.0000       2.302252        62.6475 
 146   0.0000       2.331125        63.4331 
 147   0.0000       2.375098        64.6297 
 148   0.0000       2.385312        64.9076 
 149   0.0000       2.404154        65.4203 
 150   0.0000       2.434690        66.2513 
 151   0.0000       2.455444        66.8160 
 152   0.0000       2.483784        67.5872 
 153   0.0000       2.505698        68.1835 
 154   0.0000       2.519677        68.5639 
 155   0.0000       2.550361        69.3988 
 156   0.0000       2.562317        69.7242 
 157   0.0000       2.581611        70.2492 
 158   0.0000       2.584455        70.3266 
 159   0.0000       2.621125        71.3244 
 160   0.0000       2.633765        71.6684 
 161   0.0000       2.660962        72.4085 
 162   0.0000       2.668143        72.6039 
 163   0.0000       2.680645        72.9441 
 164   0.0000       2.695662        73.3527 
 165   0.0000       2.713285        73.8322 
 166   0.0000       2.739481        74.5451 
 167   0.0000       2.767757        75.3145 
 168   0.0000       2.779572        75.6360 
 169   0.0000       2.829204        76.9865 
 170   0.0000       2.840206        77.2859 
 171   0.0000       2.845944        77.4421 
 172   0.0000       2.903641        79.0121 
 173   0.0000       2.908052        79.1321 
 174   0.0000       2.930559        79.7446 
 175   0.0000       2.960130        80.5492 
 176   0.0000       2.972636        80.8895 
 177   0.0000       2.984200        81.2042 
 178   0.0000       2.998534        81.5943 
 179   0.0000       3.027247        82.3756 
 180   0.0000       3.065813        83.4250 
 181   0.0000       3.098240        84.3074 
 182   0.0000       3.121691        84.9455 
 183   0.0000       3.133405        85.2643 
 184   0.0000       3.149797        85.7103 
 185   0.0000       3.159224        85.9668 
 186   0.0000       3.181907        86.5841 
 187   0.0000       3.214256        87.4643 
 188   0.0000       3.259848        88.7050 
 189   0.0000       3.272263        89.0428 
 190   0.0000       3.301654        89.8426 
 191   0.0000       3.317231        90.2664 
 192   0.0000       3.338632        90.8488 
 193   0.0000       3.347295        91.0845 
 194   0.0000       3.375353        91.8480 
 195   0.0000       3.398935        92.4897 
 196   0.0000       3.452696        93.9526 
 197   0.0000       3.461283        94.1863 
 198   0.0000       3.483411        94.7884 
 199   0.0000       3.493222        95.0554 
 200   0.0000       3.509358        95.4945 
 201   0.0000       3.514067        95.6226 
 202   0.0000       3.551126        96.6310 
 203   0.0000       3.569919        97.1424 
 204   0.0000       3.601573        98.0038 
 205   0.0000       3.636774        98.9617 
 206   0.0000       3.680852       100.1611 
 207   0.0000       3.705477       100.8312 
 208   0.0000       3.775062       102.7247 
 209   0.0000       3.785486       103.0083 
 210   0.0000       3.804705       103.5313 
 211   0.0000       3.879386       105.5635 
 212   0.0000       3.901502       106.1653 
 213   0.0000       3.928848       106.9094 
 214   0.0000       3.962421       107.8230 
 215   0.0000       4.007136       109.0397 
 216   0.0000       4.025930       109.5511 
 217   0.0000       4.056832       110.3920 
 218   0.0000       4.090292       111.3025 
 219   0.0000       4.124094       112.2223 
 220   0.0000       4.183990       113.8521 
 221   0.0000       4.214008       114.6690 
 222   0.0000       4.233302       115.1940 
 223   0.0000       4.251912       115.7004 
 224   0.0000       4.275211       116.3344 
 225   0.0000       4.308761       117.2473 
 226   0.0000       4.360207       118.6473 
 227   0.0000       4.389745       119.4510 
 228   0.0000       4.455692       121.2455 
 229   0.0000       4.494652       122.3057 
 230   0.0000       4.524769       123.1252 
 231   0.0000       4.552009       123.8665 
 232   0.0000       4.670886       127.1013 
 233   0.0000       4.713633       128.2645 
 234   0.0000       4.731757       128.7577 
 235   0.0000       4.798076       130.5623 
 236   0.0000       4.832818       131.5077 
 237   0.0000       4.906017       133.4995 
 238   0.0000       4.918302       133.8338 
 239   0.0000       4.929357       134.1346 
 240   0.0000       4.976129       135.4073 
 241   0.0000       5.028301       136.8270 
 242   0.0000       5.070859       137.9851 
 243   0.0000       5.092536       138.5750 
 244   0.0000       5.254912       142.9934 
 245   0.0000       5.371043       146.1535 
 246   0.0000       5.495421       149.5380 
 247   0.0000       5.588031       152.0581 
 248   0.0000       5.797497       157.7579 
 249   0.0000       5.877859       159.9447 
 250   0.0000       5.951826       161.9574 
 251   0.0000       6.103979       166.0977 
 252   0.0000       6.184475       168.2881 
 253   0.0000       6.409906       174.4224 
 254   0.0000       6.426464       174.8730 
 255   0.0000       6.470996       176.0847 
 256   0.0000       6.685085       181.9104 
 257   0.0000       6.727093       183.0535 
 258   0.0000       6.805664       185.1915 
 259   0.0000       6.901711       187.8051 
 260   0.0000       7.120920       193.7701 
 261   0.0000       7.257221       197.4790 
 262   0.0000       7.298391       198.5993 
 263   0.0000       8.194619       222.9869 
 264   0.0000      22.271751       606.0452 
 265   0.0000      22.508530       612.4882 
 266   0.0000      22.537256       613.2699 
 267   0.0000      22.614111       615.3613 
 268   0.0000      22.696628       617.6066 
 269   0.0000      43.625019      1187.0971 
 270   0.0000      44.293605      1205.2903 

                    ********************************
                    * MULLIKEN POPULATION ANALYSIS *
                    ********************************

--------------------------------------------
MULLIKEN ATOMIC CHARGES AND SPIN POPULATIONS
--------------------------------------------
   0 O :   -0.321688    0.000294
   1 O :   -0.185048   -0.001059
   2 C :    0.076638    0.011593
   3 C :   -0.163483   -0.092408
   4 C :   -0.234245    1.034766
   5 C :   -0.161136   -0.089103
   6 C :   -0.194891    0.009462
   7 H :    0.322342    0.000391
   8 H :    0.075732   -0.000183
   9 H :    0.134976    0.030252
  10 H :    0.094343    0.058071
  11 H :    0.123031   -0.051436
  12 H :    0.108617    0.059857
  13 H :    0.108901    0.030725
  14 H :    0.112463   -0.000248
  15 H :    0.103447   -0.000974
Sum of atomic charges         :    0.0000000
Sum of atomic spin populations:    1.0000000

-----------------------------------------------------
MULLIKEN REDUCED ORBITAL CHARGES AND SPIN POPULATIONS
-----------------------------------------------------
CHARGE
  0 O s       :     3.847286  s :     3.847286
      pz      :     1.820031  p :     4.430223
      px      :     1.298402
      py      :     1.311790
      dz2     :     0.004667  d :     0.041712
      dxz     :     0.006077
      dyz     :     0.008282
      dx2y2   :     0.014374
      dxy     :     0.008312
      f0      :     0.000355  f :     0.002467
      f+1     :     0.000223
      f-1     :     0.000290
      f+2     :     0.000446
      f-2     :     0.000275
      f+3     :     0.000537
      f-3     :     0.000341
  1 O s       :     3.820309  s :     3.820309
      pz      :     1.507975  p :     4.309995
      px      :     1.596164
      py      :     1.205856
      dz2     :     0.010757  d :     0.051876
      dxz     :     0.008892
      dyz     :     0.010986
      dx2y2   :     0.010887
      dxy     :     0.010354
      f0      :     0.000357  f :     0.002869
      f+1     :     0.000440
      f-1     :     0.000390
      f+2     :     0.000304
      f-2     :     0.000519
      f+3     :     0.000503
      f-3     :     0.000356
  2 C s       :     3.175176  s :     3.175176
      pz      :     0.769514  p :     2.565748
      px      :     0.861277
      py      :     0.934958
      dz2     :     0.037458  d :     0.169807
      dxz     :     0.035363
      dyz     :     0.030498
      dx2y2   :     0.031835
      dxy     :     0.034653
      f0      :     0.002461  f :     0.012631
      f+1     :     0.002186
      f-1     :     0.001215
      f+2     :     0.001412
      f-2     :     0.002266
      f+3     :     0.001405
      f-3     :     0.001686
  3 C s       :     3.122320  s :     3.122320
      pz      :     1.015656  p :     2.943493
      px      :     0.929271
      py      :     0.998566
      dz2     :     0.009781  d :     0.091845
      dxz     :     0.017445
      dyz     :     0.021861
      dx2y2   :     0.022259
      dxy     :     0.020500
      f0      :     0.000345  f :     0.005825
      f+1     :     0.000702
      f-1     :     0.000795
      f+2     :     0.000429
      f-2     :     0.001304
      f+3     :     0.001267
      f-3     :     0.000983
  4 C s       :     3.302360  s :     3.302360
      pz      :     0.978480  p :     2.846102
      px      :     0.966336
      py      :     0.901286
      dz2     :     0.006280  d :     0.078904
      dxz     :     0.011353
      dyz     :     0.018730
      dx2y2   :     0.020902
      dxy     :     0.021638
      f0      :     0.000864  f :     0.006879
      f+1     :     0.000555
      f-1     :     0.000718
      f+2     :     0.001135
      f-2     :     0.001084
      f+3     :     0.001430
      f-3     :     0.001094
  5 C s       :     3.136642  s :     3.136642
      pz      :     0.987008  p :     2.922684
      px      :     0.975460
      py      :     0.960217
      dz2     :     0.018132  d :     0.095987
      dxz     :     0.010125
      dyz     :     0.025447
      dx2y2   :     0.015040
      dxy     :     0.027243
      f0      :     0.000673  f :     0.005823
      f+1     :     0.000866
      f-1     :     0.000572
      f+2     :     0.000914
      f-2     :     0.000842
      f+3     :     0.000770
      f-3     :     0.001186
  6 C s       :     3.165565  s :     3.165565
      pz      :     1.006301  p :     2.936456
      px      :     0.971228
      py      :     0.958927
      dz2     :     0.022601  d :     0.087067
      dxz     :     0.012947
      dyz     :     0.010773
      dx2y2   :     0.015069
      dxy     :     0.025677
      f0      :     0.000728  f :     0.005805
      f+1     :     0.001237
      f-1     :     0.000354
      f+2     :     0.000470
      f-2     :     0.000954
      f+3     :     0.000940
      f-3     :     0.001122
  7 H s       :     0.631628  s :     0.631628
      pz      :     0.016110  p :     0.046029
      px      :     0.019303
      py      :     0.010616
  8 H s       :     0.903650  s :     0.903650
      pz      :     0.008715  p :     0.020617
      px      :     0.006543
      py      :     0.005359
  9 H s       :     0.843069  s :     0.843069
      pz      :     0.007730  p :     0.021955
      px      :     0.005352
      py      :     0.008873
 10 H s       :     0.884340  s :     0.884340
      pz      :     0.009616  p :     0.021317
      px      :     0.004921
      py      :     0.006780
 11 H s       :     0.854241  s :     0.854241
      pz      :     0.007741  p :     0.022727
      px      :     0.010242
      py      :     0.004744
 12 H s       :     0.870082  s :     0.870082
      pz      :     0.010287  p :     0.021301
      px      :     0.004853
      py      :     0.006162
 13 H s       :     0.869810  s :     0.869810
      pz      :     0.005062  p :     0.021289
      px      :     0.009264
      py      :     0.006963
 14 H s       :     0.866091  s :     0.866091
      pz      :     0.004200  p :     0.021446
      px      :     0.007695
      py      :     0.009551
 15 H s       :     0.875231  s :     0.875231
      pz      :     0.011974  p :     0.021322
      px      :     0.005084
      py      :     0.004264

SPIN
  0 O s       :    -0.000051  s :    -0.000051
      pz      :     0.000144  p :     0.000297
      px      :     0.000219
      py      :    -0.000066
      dz2     :     0.000013  d :     0.000048
      dxz     :     0.000002
      dyz     :     0.000005
      dx2y2   :     0.000021
      dxy     :     0.000007
      f0      :    -0.000000  f :     0.000001
      f+1     :     0.000000
      f-1     :     0.000000
      f+2     :     0.000001
      f-2     :     0.000000
      f+3     :    -0.000000
      f-3     :    -0.000000
  1 O s       :    -0.000328  s :    -0.000328
      pz      :     0.000358  p :    -0.000753
      px      :    -0.000698
      py      :    -0.000413
      dz2     :     0.000001  d :     0.000018
      dxz     :     0.000004
      dyz     :     0.000002
      dx2y2   :    -0.000004
      dxy     :     0.000016
      f0      :     0.000001  f :     0.000004
      f+1     :    -0.000000
      f-1     :     0.000000
      f+2     :    -0.000000
      f-2     :     0.000001
      f+3     :     0.000002
      f-3     :     0.000000
  2 C s       :     0.003874  s :     0.003874
      pz      :     0.003642  p :     0.007818
      px      :     0.002709
      py      :     0.001467
      dz2     :     0.000081  d :    -0.000057
      dxz     :    -0.000278
      dyz     :     0.000561
      dx2y2   :    -0.000177
      dxy     :    -0.000244
      f0      :    -0.000005  f :    -0.000042
      f+1     :    -0.000002
      f-1     :    -0.000009
      f+2     :     0.000007
      f-2     :     0.000004
      f+3     :    -0.000029
      f-3     :    -0.000008
  3 C s       :    -0.031591  s :    -0.031591
      pz      :    -0.035440  p :    -0.085936
      px      :    -0.031415
      py      :    -0.019081
      dz2     :     0.006585  d :     0.024013
      dxz     :     0.002276
      dyz     :     0.011391
      dx2y2   :     0.001737
      dxy     :     0.002025
      f0      :     0.000035  f :     0.001106
      f+1     :     0.000443
      f-1     :     0.000170
      f+2     :     0.000020
      f-2     :     0.000195
      f+3     :     0.000049
      f-3     :     0.000193
  4 C s       :     0.080538  s :     0.080538
      pz      :     0.649690  p :     0.950327
      px      :     0.255171
      py      :     0.045466
      dz2     :    -0.000039  d :     0.005420
      dxz     :    -0.001455
      dyz     :     0.002239
      dx2y2   :     0.002394
      dxy     :     0.002280
      f0      :    -0.000513  f :    -0.001519
      f+1     :    -0.000171
      f-1     :    -0.000240
      f+2     :    -0.000244
      f-2     :    -0.000318
      f+3     :    -0.000000
      f-3     :    -0.000032
  5 C s       :    -0.029631  s :    -0.029631
      pz      :    -0.030158  p :    -0.084770
      px      :    -0.017456
      py      :    -0.037156
      dz2     :    -0.000388  d :     0.024163
      dxz     :     0.000464
      dyz     :     0.016975
      dx2y2   :    -0.000334
      dxy     :     0.007446
      f0      :     0.000173  f :     0.001134
      f+1     :     0.000059
      f-1     :     0.000231
      f+2     :     0.000379
      f-2     :     0.000050
      f+3     :     0.000135
      f-3     :     0.000109
  6 C s       :     0.003481  s :     0.003481
      pz      :     0.001785  p :     0.006538
      px      :     0.003689
      py      :     0.001065
      dz2     :    -0.000641  d :    -0.000518
      dxz     :    -0.000118
      dyz     :     0.000016
      dx2y2   :    -0.000030
      dxy     :     0.000256
      f0      :    -0.000006  f :    -0.000039
      f+1     :    -0.000018
      f-1     :     0.000012
      f+2     :     0.000001
      f-2     :    -0.000024
      f+3     :    -0.000004
      f-3     :    -0.000001
  7 H s       :     0.000384  s :     0.000384
      pz      :     0.000005  p :     0.000007
      px      :     0.000003
      py      :    -0.000001
  8 H s       :    -0.000208  s :    -0.000208
      pz      :     0.000018  p :     0.000024
      px      :     0.000006
      py      :     0.000000
  9 H s       :     0.030370  s :     0.030370
      pz      :    -0.000014  p :    -0.000119
      px      :     0.000013
      py      :    -0.000117
 10 H s       :     0.058146  s :     0.058146
      pz      :    -0.000200  p :    -0.000075
      px      :     0.000252
      py      :    -0.000127
 11 H s       :    -0.057088  s :    -0.057088
      pz      :     0.003876  p :     0.005652
      px      :     0.001683
      py      :     0.000093
 12 H s       :     0.059904  s :     0.059904
      pz      :     0.000040  p :    -0.000047
      px      :     0.000029
      py      :    -0.000116
 13 H s       :     0.030843  s :     0.030843
      pz      :    -0.000022  p :    -0.000118
      px      :     0.000038
      py      :    -0.000134
 14 H s       :    -0.000266  s :    -0.000266
      pz      :    -0.000004  p :     0.000018
      px      :     0.000023
      py      :    -0.000001
 15 H s       :    -0.000988  s :    -0.000988
      pz      :     0.000000  p :     0.000013
      px      :    -0.000004
      py      :     0.000017


                     *******************************
                     * LOEWDIN POPULATION ANALYSIS *
                     *******************************

-------------------------------------------
LOEWDIN ATOMIC CHARGES AND SPIN POPULATIONS
-------------------------------------------
   0 O :   -0.110661    0.001058
   1 O :    0.086786   -0.000391
   2 C :   -0.356284    0.002311
   3 C :   -0.260754    0.064880
   4 C :   -0.132169    0.751997
   5 C :   -0.274997    0.064517
   6 C :   -0.231669    0.001890
   7 H :    0.159704    0.000365
   8 H :    0.128449   -0.000067
   9 H :    0.149361    0.019927
  10 H :    0.146783    0.036542
  11 H :    0.121699   -0.000155
  12 H :    0.148735    0.037419
  13 H :    0.138635    0.020444
  14 H :    0.140052   -0.000246
  15 H :    0.146328   -0.000492

----------------------------------------------------
LOEWDIN REDUCED ORBITAL CHARGES AND SPIN POPULATIONS
----------------------------------------------------
CHARGE
  0 O s       :     3.510273  s :     3.510273
      pz      :     1.787362  p :     4.490331
      px      :     1.320008
      py      :     1.382961
      dz2     :     0.013262  d :     0.101894
      dxz     :     0.010434
      dyz     :     0.018367
      dx2y2   :     0.035906
      dxy     :     0.023924
      f0      :     0.000758  f :     0.008163
      f+1     :     0.000435
      f-1     :     0.001035
      f+2     :     0.001326
      f-2     :     0.000990
      f+3     :     0.002089
      f-3     :     0.001530
  1 O s       :     3.405768  s :     3.405768
      pz      :     1.529236  p :     4.352908
      px      :     1.540030
      py      :     1.283641
      dz2     :     0.026993  d :     0.143971
      dxz     :     0.026362
      dyz     :     0.031932
      dx2y2   :     0.027957
      dxy     :     0.030727
      f0      :     0.001371  f :     0.010567
      f+1     :     0.001058
      f-1     :     0.001701
      f+2     :     0.001314
      f-2     :     0.001710
      f+3     :     0.001962
      f-3     :     0.001451
  2 C s       :     2.763486  s :     2.763486
      pz      :     0.875527  p :     2.843546
      px      :     0.945818
      py      :     1.022200
      dz2     :     0.135718  d :     0.661090
      dxz     :     0.166952
      dyz     :     0.109235
      dx2y2   :     0.107742
      dxy     :     0.141442
      f0      :     0.016021  f :     0.088163
      f+1     :     0.015060
      f-1     :     0.010382
      f+2     :     0.011397
      f-2     :     0.013309
      f+3     :     0.010213
      f-3     :     0.011781
  3 C s       :     2.775760  s :     2.775760
      pz      :     1.021775  p :     3.047638
      px      :     1.020164
      py      :     1.005699
      dz2     :     0.046691  d :     0.395853
      dxz     :     0.065908
      dyz     :     0.101134
      dx2y2   :     0.086120
      dxy     :     0.096000
      f0      :     0.003189  f :     0.041502
      f+1     :     0.006021
      f-1     :     0.004345
      f+2     :     0.003935
      f-2     :     0.005726
      f+3     :     0.010634
      f-3     :     0.007653
  4 C s       :     2.820217  s :     2.820217
      pz      :     0.918843  p :     2.917425
      px      :     0.977117
      py      :     1.021465
      dz2     :     0.030818  d :     0.355755
      dxz     :     0.049014
      dyz     :     0.072946
      dx2y2   :     0.101826
      dxy     :     0.101151
      f0      :     0.004018  f :     0.038771
      f+1     :     0.002797
      f-1     :     0.004177
      f+2     :     0.006174
      f-2     :     0.005656
      f+3     :     0.009320
      f-3     :     0.006629
  5 C s       :     2.774030  s :     2.774030
      pz      :     1.017437  p :     3.050279
      px      :     1.008224
      py      :     1.024617
      dz2     :     0.072030  d :     0.408706
      dxz     :     0.060295
      dyz     :     0.097933
      dx2y2   :     0.072996
      dxy     :     0.105453
      f0      :     0.004843  f :     0.041983
      f+1     :     0.005255
      f-1     :     0.005511
      f+2     :     0.005929
      f-2     :     0.005441
      f+3     :     0.006040
      f-3     :     0.008964
  6 C s       :     2.779972  s :     2.779972
      pz      :     1.019240  p :     3.030007
      px      :     1.010768
      py      :     0.999999
      dz2     :     0.100344  d :     0.381774
      dxz     :     0.064145
      dyz     :     0.040013
      dx2y2   :     0.066806
      dxy     :     0.110467
      f0      :     0.003844  f :     0.039917
      f+1     :     0.006414
      f-1     :     0.003905
      f+2     :     0.006130
      f-2     :     0.006540
      f+3     :     0.005824
      f-3     :     0.007259
  7 H s       :     0.682413  s :     0.682413
      pz      :     0.049512  p :     0.157882
      px      :     0.077177
      py      :     0.031194
  8 H s       :     0.815449  s :     0.815449
      pz      :     0.023888  p :     0.056101
      px      :     0.017377
      py      :     0.014836
  9 H s       :     0.790556  s :     0.790556
      pz      :     0.022604  p :     0.060083
      px      :     0.014935
      py      :     0.022545
 10 H s       :     0.795222  s :     0.795222
      pz      :     0.026976  p :     0.057994
      px      :     0.014083
      py      :     0.016935
 11 H s       :     0.812790  s :     0.812790
      pz      :     0.022909  p :     0.065511
      px      :     0.028879
      py      :     0.013723
 12 H s       :     0.792805  s :     0.792805
      pz      :     0.028112  p :     0.058460
      px      :     0.014464
      py      :     0.015884
 13 H s       :     0.803227  s :     0.803227
      pz      :     0.015411  p :     0.058138
      px      :     0.024957
      py      :     0.017771
 14 H s       :     0.800539  s :     0.800539
      pz      :     0.012602  p :     0.059410
      px      :     0.021419
      py      :     0.025389
 15 H s       :     0.795060  s :     0.795060
      pz      :     0.030698  p :     0.058612
      px      :     0.015136
      py      :     0.012778

SPIN
  0 O s       :     0.000334  s :     0.000334
      pz      :     0.000183  p :     0.000653
      px      :     0.000430
      py      :     0.000041
      dz2     :     0.000026  d :     0.000070
      dxz     :     0.000002
      dyz     :     0.000008
      dx2y2   :     0.000037
      dxy     :    -0.000002
      f0      :     0.000000  f :     0.000001
      f+1     :     0.000000
      f-1     :     0.000000
      f+2     :     0.000001
      f-2     :    -0.000000
      f+3     :     0.000000
      f-3     :    -0.000001
  1 O s       :    -0.000054  s :    -0.000054
      pz      :     0.000258  p :    -0.000492
      px      :    -0.000467
      py      :    -0.000283
      dz2     :     0.000001  d :     0.000139
      dxz     :     0.000033
      dyz     :     0.000064
      dx2y2   :    -0.000015
      dxy     :     0.000056
      f0      :     0.000003  f :     0.000016
      f+1     :    -0.000000
      f-1     :     0.000001
      f+2     :    -0.000000
      f-2     :     0.000003
      f+3     :     0.000006
      f-3     :     0.000002
  2 C s       :     0.000513  s :     0.000513
      pz      :     0.000588  p :     0.002997
      px      :     0.000534
      py      :     0.001875
      dz2     :    -0.000102  d :    -0.000928
      dxz     :    -0.000937
      dyz     :     0.000907
      dx2y2   :    -0.000630
      dxy     :    -0.000165
      f0      :    -0.000032  f :    -0.000271
      f+1     :    -0.000074
      f-1     :    -0.000025
      f+2     :     0.000028
      f-2     :    -0.000009
      f+3     :    -0.000110
      f-3     :    -0.000050
  3 C s       :    -0.003731  s :    -0.003731
      pz      :    -0.007724  p :    -0.023783
      px      :    -0.008892
      py      :    -0.007166
      dz2     :     0.022864  d :     0.085105
      dxz     :     0.007755
      dyz     :     0.038180
      dx2y2   :     0.007793
      dxy     :     0.008512
      f0      :     0.000249  f :     0.007289
      f+1     :     0.002822
      f-1     :     0.000985
      f+2     :     0.000110
      f-2     :     0.001222
      f+3     :     0.000441
      f-3     :     0.001460
  4 C s       :     0.023748  s :     0.023748
      pz      :     0.522133  p :     0.730259
      px      :     0.191562
      py      :     0.016564
      dz2     :     0.001554  d :    -0.000747
      dxz     :    -0.000630
      dyz     :    -0.000246
      dx2y2   :    -0.000277
      dxy     :    -0.001148
      f0      :    -0.000313  f :    -0.001263
      f+1     :     0.000225
      f-1     :    -0.000355
      f+2     :     0.000090
      f-2     :    -0.000472
      f+3     :    -0.000158
      f-3     :    -0.000281
  5 C s       :    -0.003647  s :    -0.003647
      pz      :    -0.005482  p :    -0.024416
      px      :    -0.005153
      py      :    -0.013781
      dz2     :     0.001360  d :     0.085207
      dxz     :     0.002177
      dyz     :     0.056106
      dx2y2   :     0.002217
      dxy     :     0.023347
      f0      :     0.001115  f :     0.007374
      f+1     :     0.000336
      f-1     :     0.001613
      f+2     :     0.002373
      f-2     :     0.000264
      f+3     :     0.000903
      f-3     :     0.000771
  6 C s       :     0.000401  s :     0.000401
      pz      :     0.000804  p :     0.003035
      px      :     0.001723
      py      :     0.000508
      dz2     :    -0.001059  d :    -0.001308
      dxz     :    -0.000243
      dyz     :    -0.000021
      dx2y2   :    -0.000145
      dxy     :     0.000160
      f0      :    -0.000016  f :    -0.000238
      f+1     :    -0.000075
      f-1     :     0.000010
      f+2     :    -0.000012
      f-2     :    -0.000103
      f+3     :    -0.000019
      f-3     :    -0.000023
  7 H s       :     0.000332  s :     0.000332
      pz      :     0.000009  p :     0.000033
      px      :     0.000026
      py      :    -0.000002
  8 H s       :    -0.000139  s :    -0.000139
      pz      :     0.000058  p :     0.000072
      px      :     0.000010
      py      :     0.000004
  9 H s       :     0.020953  s :     0.020953
      pz      :    -0.000372  p :    -0.001025
      px      :    -0.000060
      py      :    -0.000594
 10 H s       :     0.037732  s :     0.037732
      pz      :    -0.000585  p :    -0.001190
      px      :    -0.000124
      py      :    -0.000481
 11 H s       :    -0.019832  s :    -0.019832
      pz      :     0.012768  p :     0.019677
      px      :     0.006357
      py      :     0.000552
 12 H s       :     0.038590  s :     0.038590
      pz      :    -0.000615  p :    -0.001171
      px      :    -0.000066
      py      :    -0.000490
 13 H s       :     0.021434  s :     0.021434
      pz      :    -0.000022  p :    -0.000990
      px      :    -0.000323
      py      :    -0.000645
 14 H s       :    -0.000298  s :    -0.000298
      pz      :    -0.000008  p :     0.000052
      px      :     0.000054
      py      :     0.000006
 15 H s       :    -0.000626  s :    -0.000626
      pz      :     0.000071  p :     0.000134
      px      :     0.000011
      py      :     0.000051


                      *****************************
                      * MAYER POPULATION ANALYSIS *
                      *****************************

  NA   - Mulliken gross atomic population
  ZA   - Total nuclear charge
  QA   - Mulliken gross atomic charge
  VA   - Mayer's total valence
  BVA  - Mayer's bonded valence
  FA   - Mayer's free valence

  ATOM       NA         ZA         QA         VA         BVA        FA
  0 O      8.3217     8.0000    -0.3217     1.8484     1.8484     0.0000
  1 O      8.1850     8.0000    -0.1850     1.9026     1.9026     0.0000
  2 C      5.9234     6.0000     0.0766     4.0485     4.0485     0.0000
  3 C      6.1635     6.0000    -0.1635     3.9328     3.9277     0.0051
  4 C      6.2342     6.0000    -0.2342     3.9122     3.1462     0.7660
  5 C      6.1611     6.0000    -0.1611     3.9977     3.9926     0.0051
  6 C      6.1949     6.0000    -0.1949     3.9593     3.9592     0.0000
  7 H      0.6777     1.0000     0.3223     0.9117     0.9117     0.0000
  8 H      0.9243     1.0000     0.0757     0.9749     0.9749     0.0000
  9 H      0.8650     1.0000     0.1350     0.9835     0.9826     0.0009
 10 H      0.9057     1.0000     0.0943     0.9704     0.9669     0.0035
 11 H      0.8770     1.0000     0.1230     0.9791     0.9758     0.0033
 12 H      0.8914     1.0000     0.1086     0.9721     0.9684     0.0037
 13 H      0.8911     1.0000     0.1089     0.9640     0.9629     0.0010
 14 H      0.8875     1.0000     0.1125     0.9844     0.9844     0.0000
 15 H      0.8966     1.0000     0.1034     0.9748     0.9748     0.0000

  Mayer bond orders larger than 0.100000
B(  0-O ,  1-O ) :   0.8559 B(  0-O ,  7-H ) :   0.8970 B(  1-O ,  2-C ) :   1.0025 
B(  2-C ,  3-C ) :   1.0296 B(  2-C ,  6-C ) :   0.9495 B(  2-C ,  8-H ) :   0.9669 
B(  3-C ,  4-C ) :   1.0457 B(  3-C ,  9-H ) :   0.9359 B(  3-C , 10-H ) :   0.9185 
B(  4-C ,  5-C ) :   1.0444 B(  4-C , 11-H ) :   0.9640 B(  5-C ,  6-C ) :   1.0546 
B(  5-C , 12-H ) :   0.9222 B(  5-C , 13-H ) :   0.9478 B(  6-C , 14-H ) :   0.9537 
B(  6-C , 15-H ) :   0.9457 


------------------
HIRSHFELD ANALYSIS
------------------

Total integrated alpha density =     28.000021376
Total integrated beta density  =     27.000006620

  ATOM     CHARGE      SPIN    
   0 O   -0.155831    0.001561
   1 O   -0.105775    0.001056
   2 C    0.050585    0.007625
   3 C   -0.062344    0.047131
   4 C   -0.027822    0.694295
   5 C   -0.054165    0.047348
   6 C   -0.045929    0.007589
   7 H    0.164711    0.000272
   8 H    0.021028    0.000476
   9 H    0.033136    0.025539
  10 H    0.029494    0.046588
  11 H    0.027148    0.044875
  12 H    0.030270    0.047089
  13 H    0.028965    0.027396
  14 H    0.032459    0.000225
  15 H    0.034043    0.000950

  TOTAL  -0.000028    1.000015

-------
TIMINGS
-------

Total SCF time: 0 days 0 hours 0 min 15 sec 

Total time                  ....      15.900 sec
Sum of individual times     ....      15.633 sec  ( 98.3%)

Fock matrix formation       ....      14.032 sec  ( 88.3%)
  Split-RI-J                ....       1.117 sec  (  8.0% of F)
  Chain of spheres X        ....       9.954 sec  ( 70.9% of F)
  XC integration            ....       2.861 sec  ( 20.4% of F)
    Basis function eval.    ....       0.501 sec  ( 17.5% of XC)
    Density eval.           ....       0.844 sec  ( 29.5% of XC)
    XC-Functional eval.     ....       0.104 sec  (  3.6% of XC)
    XC-Potential eval.      ....       1.270 sec  ( 44.4% of XC)
Diagonalization             ....       0.276 sec  (  1.7%)
Density matrix formation    ....       0.015 sec  (  0.1%)
Population analysis         ....       0.419 sec  (  2.6%)
Initial guess               ....       0.162 sec  (  1.0%)
Orbital Transformation      ....       0.000 sec  (  0.0%)
Orbital Orthonormalization  ....       0.000 sec  (  0.0%)
DIIS solution               ....       0.144 sec  (  0.9%)
Grid generation             ....       0.584 sec  (  3.7%)

Maximum memory used throughout the entire SCF-calculation: 78.3 MB


-------------------------------------------------------------------------------
                          DFT DISPERSION CORRECTION                            
                                                                               
                              DFTD3 V3.1  Rev 1                                
                          USING Becke-Johnson damping                          
-------------------------------------------------------------------------------
The PBE0 functional is recognized
Active option DFTDOPT                   ...         4   

molecular C6(AA) [au] = 1951.426622 


            DFT-D V3
 parameters
 s6 scaling factor         :     1.0000 
 a1 scaling factor         :     0.4145 
 s8 scaling factor         :     1.2177 
 a2 scaling factor         :     4.8593 
 ad hoc parameters k1-k3   :    16.0000     1.3333    -4.0000 

 Edisp/kcal,au: -7.138978337511  -0.011376684928 
 E6   /kcal   :  -4.594443720 
 E8   /kcal   :  -2.544534618 
 % E8         :  35.642839879 

-------------------------   ----------------
Dispersion correction           -0.011376685
-------------------------   ----------------


-------------------------   --------------------
FINAL SINGLE POINT ENERGY      -345.994775846533
-------------------------   --------------------


                            ***************************************
                            *     ORCA property calculations      *
                            ***************************************

                                    ---------------------
                                    Active property flags
                                    ---------------------
   (+) Dipole Moment


------------------------------------------------------------------------------
                       ORCA ELECTRIC PROPERTIES CALCULATION
------------------------------------------------------------------------------

Dipole Moment Calculation                       ... on
Quadrupole Moment Calculation                   ... off
Polarizability Calculation                      ... off
GBWName                                         ... r0_C5H9O2_sp_orca.gbw
Electron density                                ... r0_C5H9O2_sp_orca.scfp
The origin for moment calculation is the CENTER OF MASS  = ( 0.540550, -0.183894  0.390769)

-------------
DIPOLE MOMENT
-------------
                                X             Y             Z
Electronic contribution:      3.81528      -1.24852       2.24846
Nuclear contribution   :     -3.59295       1.28209      -2.88843
                        -----------------------------------------
Total Dipole Moment    :      0.22233       0.03357      -0.63997
                        -----------------------------------------
Magnitude (a.u.)       :      0.67832
Magnitude (Debye)      :      1.72415



--------------------
Rotational spectrum 
--------------------
 
Rotational constants in cm-1:     0.162498     0.070700     0.060941 
Rotational constants in MHz :  4871.577815  2119.519958  1826.955509 

 Dipole components along the rotational axes: 
x,y,z [a.u.] :    -0.024834     0.297898    -0.608900 
x,y,z [Debye]:    -0.063123     0.757196    -1.547700 

 

Timings for individual modules:

Sum of individual times         ...       16.774 sec (=   0.280 min)
GTO integral calculation        ...        0.558 sec (=   0.009 min)   3.3 %
SCF iterations                  ...       16.216 sec (=   0.270 min)  96.7 %
                             ****ORCA TERMINATED NORMALLY****
TOTAL RUN TIME: 0 days 0 hours 0 minutes 17 seconds 256 msec
