
                                 *****************
                                 * O   R   C   A *
                                 *****************

                                            #,                                       
                                            ###                                      
                                            ####                                     
                                            #####                                    
                                            ######                                   
                                           ########,                                 
                                     ,,################,,,,,                         
                               ,,#################################,,                 
                          ,,##########################################,,             
                       ,#########################################, ''#####,          
                    ,#############################################,,   '####,        
                  ,##################################################,,,,####,       
                ,###########''''           ''''###############################       
              ,#####''   ,,,,##########,,,,          '''####'''          '####       
            ,##' ,,,,###########################,,,                        '##       
           ' ,,###''''                  '''############,,,                           
         ,,##''                                '''############,,,,        ,,,,,,###''
      ,#''                                            '''#######################'''  
     '                                                          ''''####''''         
             ,#######,   #######,   ,#######,      ##                                
            ,#'     '#,  ##    ##  ,#'     '#,    #''#        ######   ,####,        
            ##       ##  ##   ,#'  ##            #'  '#       #        #'  '#        
            ##       ##  #######   ##           ,######,      #####,   #    #        
            '#,     ,#'  ##    ##  '#,     ,#' ,#      #,         ##   #,  ,#        
             '#######'   ##     ##  '#######'  #'      '#     #####' # '####'        



                  #######################################################
                  #                        -***-                        #
                  #          Department of theory and spectroscopy      #
                  #    Directorship and core code : Frank Neese         #
                  #        Max Planck Institute fuer Kohlenforschung    #
                  #                Kaiser Wilhelm Platz 1               #
                  #                 D-45470 Muelheim/Ruhr               #
                  #                      Germany                        #
                  #                                                     #
                  #                  All rights reserved                #
                  #                        -***-                        #
                  #######################################################


                         Program Version 5.0.4 -  RELEASE  -


 With contributions from (in alphabetic order):
   Daniel Aravena         : Magnetic Suceptibility
   Michael Atanasov       : Ab Initio Ligand Field Theory (pilot matlab implementation)
   Alexander A. Auer      : GIAO ZORA, VPT2 properties, NMR spectrum
   Ute Becker             : Parallelization
   Giovanni Bistoni       : ED, misc. LED, open-shell LED, HFLD
   Martin Brehm           : Molecular dynamics
   Dmytro Bykov           : SCF Hessian
   Vijay G. Chilkuri      : MRCI spin determinant printing, contributions to CSF-ICE
   Dipayan Datta          : RHF DLPNO-CCSD density
   Achintya Kumar Dutta   : EOM-CC, STEOM-CC
   Dmitry Ganyushin       : Spin-Orbit,Spin-Spin,Magnetic field MRCI
   Miquel Garcia          : C-PCM and meta-GGA Hessian, CC/C-PCM, Gaussian charge scheme
   Yang Guo               : DLPNO-NEVPT2, F12-NEVPT2, CIM, IAO-localization
   Andreas Hansen         : Spin unrestricted coupled pair/coupled cluster methods
   Benjamin Helmich-Paris : MC-RPA, TRAH-SCF, COSX integrals
   Lee Huntington         : MR-EOM, pCC
   Robert Izsak           : Overlap fitted RIJCOSX, COSX-SCS-MP3, EOM
   Marcus Kettner         : VPT2
   Christian Kollmar      : KDIIS, OOCD, Brueckner-CCSD(T), CCSD density, CASPT2, CASPT2-K
   Simone Kossmann        : Meta GGA functionals, TD-DFT gradient, OOMP2, MP2 Hessian
   Martin Krupicka        : Initial AUTO-CI
   Lucas Lang             : DCDCAS
   Marvin Lechner         : AUTO-CI (C++ implementation), FIC-MRCC
   Dagmar Lenk            : GEPOL surface, SMD
   Dimitrios Liakos       : Extrapolation schemes; Compound Job, initial MDCI parallelization
   Dimitrios Manganas     : Further ROCIS development; embedding schemes
   Dimitrios Pantazis     : SARC Basis sets
   Anastasios Papadopoulos: AUTO-CI, single reference methods and gradients
   Taras Petrenko         : DFT Hessian,TD-DFT gradient, ASA, ECA, R-Raman, ABS, FL, XAS/XES, NRVS
   Peter Pinski           : DLPNO-MP2, DLPNO-MP2 Gradient
   Christoph Reimann      : Effective Core Potentials
   Marius Retegan         : Local ZFS, SOC
   Christoph Riplinger    : Optimizer, TS searches, QM/MM, DLPNO-CCSD(T), (RO)-DLPNO pert. Triples
   Tobias Risthaus        : Range-separated hybrids, TD-DFT gradient, RPA, STAB
   Michael Roemelt        : Original ROCIS implementation
   Masaaki Saitow         : Open-shell DLPNO-CCSD energy and density
   Barbara Sandhoefer     : DKH picture change effects
   Avijit Sen             : IP-ROCIS
   Kantharuban Sivalingam : CASSCF convergence, NEVPT2, FIC-MRCI
   Bernardo de Souza      : ESD, SOC TD-DFT
   Georgi Stoychev        : AutoAux, RI-MP2 NMR, DLPNO-MP2 response
   Willem Van den Heuvel  : Paramagnetic NMR
   Boris Wezisla          : Elementary symmetry handling
   Frank Wennmohs         : Technical directorship


 We gratefully acknowledge several colleagues who have allowed us to
 interface, adapt or use parts of their codes:
   Stefan Grimme, W. Hujo, H. Kruse, P. Pracht,  : VdW corrections, initial TS optimization,
                  C. Bannwarth, S. Ehlert          DFT functionals, gCP, sTDA/sTD-DF
   Ed Valeev, F. Pavosevic, A. Kumar             : LibInt (2-el integral package), F12 methods
   Garnet Chan, S. Sharma, J. Yang, R. Olivares  : DMRG
   Ulf Ekstrom                                   : XCFun DFT Library
   Mihaly Kallay                                 : mrcc  (arbitrary order and MRCC methods)
   Jiri Pittner, Ondrej Demel                    : Mk-CCSD
   Frank Weinhold                                : gennbo (NPA and NBO analysis)
   Christopher J. Cramer and Donald G. Truhlar   : smd solvation model
   Lars Goerigk                                  : TD-DFT with DH, B97 family of functionals
   V. Asgeirsson, H. Jonsson                     : NEB implementation
   FAccTs GmbH                                   : IRC, NEB, NEB-TS, DLPNO-Multilevel, CI-OPT
                                                   MM, QMMM, 2- and 3-layer-ONIOM, Crystal-QMMM,
                                                   LR-CPCM, SF, NACMEs, symmetry and pop. for TD-DFT,
                                                   nearIR, NL-DFT gradient (VV10), updates on ESD,
                                                   ML-optimized integration grids
   S Lehtola, MJT Oliveira, MAL Marques          : LibXC Library
   Liviu Ungur et al                             : ANISO software


 Your calculation uses the libint2 library for the computation of 2-el integrals
 For citations please refer to: http://libint.valeyev.net

 Your ORCA version has been built with support for libXC version: 5.1.0
 For citations please refer to: https://tddft.org/programs/libxc/

 This ORCA versions uses:
   CBLAS   interface :  Fast vector & matrix operations
   LAPACKE interface :  Fast linear algebra routines
   SCALAPACK package :  Parallel linear algebra routines
   Shared memory     :  Shared parallel matrices
   BLAS/LAPACK       :  OpenBLAS 0.3.15  USE64BITINT DYNAMIC_ARCH NO_AFFINITY SkylakeX SINGLE_THREADED
        Core in use  :  SkylakeX
   Copyright (c) 2011-2014, The OpenBLAS Project


Your calculation utilizes the atom-pairwise dispersion correction
with the Becke-Johnson damping scheme (D3BJ)
Cite in your paper:
S.Grimme, S.Ehrlich, L.Goerigk, J Comput Chem, (2011), 32, 1456–1465 
S.Grimme, J.Antony, S.Ehrlich and H.Krieg, J.Chem.Phys., 132, (2010), 154104 
   

================================================================================

----- Orbital basis set information -----
Your calculation utilizes the basis: def2-TZVP
   F. Weigend and R. Ahlrichs, Phys. Chem. Chem. Phys. 7, 3297 (2005).

----- AuxJ basis set information -----
Your calculation utilizes the auxiliary basis: def2/J
   F. Weigend, Phys. Chem. Chem. Phys. 8, 1057 (2006).

================================================================================
                                        WARNINGS
                       Please study these warnings very carefully!
================================================================================


WARNING: your system is open-shell and RHF/RKS was chosen
  ===> : WILL SWITCH to UHF/UKS


INFO   : the flag for use of the SHARK integral package has been found!

================================================================================
                                       INPUT FILE
================================================================================
NAME = TS_vdwLSy_ll_ad_1-4_0-1_sp_orca.inp
|  1> ! SP PBE0 RIJCOSX D3BJ def2-TZVP def2/J 
|  2> %geom
|  3> modify_internal
|  4> { B 0 1 A } end
|  5> end
|  6> %geom
|  7> modify_internal
|  8> { B 1 4 A } end
|  9> end
| 10> %output 
| 11> xyzfile=True 
| 12> end 
| 13> %scf 
| 14> maxiter 250 
| 15> end
| 16> %output
| 17> Print[P_Hirshfeld] = 1
| 18> end
| 19> % maxcore
| 20> 4000
| 21> %pal nprocs 8
| 22> end
| 23> *xyz 0 2
| 24> O    2.55780995  -0.14672122   0.75935371 
| 25> O    0.89919442  -0.57981940   0.80912472 
| 26> C    0.56415259  -0.49835789  -0.57710511 
| 27> C   -0.75835099  -1.23541173  -0.42779413 
| 28> C   -1.08711245  -0.33396465   0.72606242 
| 29> C   -0.94655689   1.08792805   0.27271600 
| 30> C    0.16370078   0.95871072  -0.80055555 
| 31> H    2.67160592  -0.24396511   1.71489961 
| 32> H    1.36161265  -0.90500948  -1.21401523 
| 33> H   -0.62002221  -2.28614531  -0.14281427 
| 34> H   -1.45067759  -1.15999367  -1.28824082 
| 35> H   -1.60897595  -0.63585303   1.63780142 
| 36> H   -0.67071572   1.75385852   1.10350251 
| 37> H   -1.89698256   1.46910467  -0.14484234 
| 38> H    1.02142151   1.61500724  -0.60444923 
| 39> H   -0.19983343   1.14082232  -1.82365369 
| 40> *
| 41> 
| 42>                          ****END OF INPUT****
================================================================================

                       ****************************
                       * Single Point Calculation *
                       ****************************

---------------------------------
CARTESIAN COORDINATES (ANGSTROEM)
---------------------------------
  O      2.557810   -0.146721    0.759354
  O      0.899194   -0.579819    0.809125
  C      0.564153   -0.498358   -0.577105
  C     -0.758351   -1.235412   -0.427794
  C     -1.087112   -0.333965    0.726062
  C     -0.946557    1.087928    0.272716
  C      0.163701    0.958711   -0.800556
  H      2.671606   -0.243965    1.714900
  H      1.361613   -0.905009   -1.214015
  H     -0.620022   -2.286145   -0.142814
  H     -1.450678   -1.159994   -1.288241
  H     -1.608976   -0.635853    1.637801
  H     -0.670716    1.753859    1.103503
  H     -1.896983    1.469105   -0.144842
  H      1.021422    1.615007   -0.604449
  H     -0.199833    1.140822   -1.823654

----------------------------
CARTESIAN COORDINATES (A.U.)
----------------------------
  NO LB      ZA    FRAG     MASS         X           Y           Z
   0 O     8.0000    0    15.999    4.833560   -0.277263    1.434971
   1 O     8.0000    0    15.999    1.699231   -1.095700    1.529024
   2 C     6.0000    0    12.011    1.066094   -0.941760   -1.090571
   3 C     6.0000    0    12.011   -1.433076   -2.334590   -0.808414
   4 C     6.0000    0    12.011   -2.054345   -0.631102    1.372059
   5 C     6.0000    0    12.011   -1.788733    2.055886    0.515359
   6 C     6.0000    0    12.011    0.309350    1.811701   -1.512831
   7 H     1.0000    0     1.008    5.048604   -0.461027    3.240691
   8 H     1.0000    0     1.008    2.573075   -1.710220   -2.294156
   9 H     1.0000    0     1.008   -1.171672   -4.320189   -0.269880
  10 H     1.0000    0     1.008   -2.741383   -2.192070   -2.434422
  11 H     1.0000    0     1.008   -3.040524   -1.201588    3.094996
  12 H     1.0000    0     1.008   -1.267469    3.314312    2.085318
  13 H     1.0000    0     1.008   -3.584778    2.776205   -0.273712
  14 H     1.0000    0     1.008    1.930207    3.051921   -1.142244
  15 H     1.0000    0     1.008   -0.377630    2.155842   -3.446206

--------------------------------
INTERNAL COORDINATES (ANGSTROEM)
--------------------------------
 O      0   0   0     0.000000000000     0.00000000     0.00000000
 O      1   0   0     1.714950921546     0.00000000     0.00000000
 C      2   1   0     1.428468462040   100.61892341     0.00000000
 C      3   2   1     1.521367099329    94.64715765   166.11019610
 C      4   3   2     1.500691798338    88.56078393    48.63489091
 C      5   4   3     1.499018909916   108.46394648    53.59377231
 C      3   2   1     1.527527638217   104.94202743   272.36022040
 H      1   2   3     0.967198978462    93.42414377   180.62365757
 H      3   2   1     1.098618479684   111.79181314    40.51812765
 H      4   3   2     1.097446776897   112.31892356   293.45017361
 H      4   3   2     1.106965451662   115.74597671   165.63571561
 H      5   4   3     1.093044423037   125.45315828   217.59052539
 H      6   5   4     1.099889979561   111.67742829   208.78486957
 H      6   5   4     1.105875009724   111.13433116    89.40539594
 H      7   3   2     1.097664639851   109.83657327    63.18122120
 H      7   3   2     1.100932132680   112.35177397   184.65254626

---------------------------
INTERNAL COORDINATES (A.U.)
---------------------------
 O      0   0   0     0.000000000000     0.00000000     0.00000000
 O      1   0   0     3.240787574839     0.00000000     0.00000000
 C      2   1   0     2.699414184199   100.61892341     0.00000000
 C      3   2   1     2.874967166890    94.64715765   166.11019610
 C      4   3   2     2.835896510281    88.56078393    48.63489091
 C      5   4   3     2.832735209311   108.46394648    53.59377231
 C      3   2   1     2.886608898225   104.94202743   272.36022040
 H      1   2   3     1.827741186301    93.42414377   180.62365757
 H      3   2   1     2.076088052268   111.79181314    40.51812765
 H      4   3   2     2.073873854890   112.31892356   293.45017361
 H      4   3   2     2.091861543354   115.74597671   165.63571561
 H      5   4   3     2.065554611750   125.45315828   217.59052539
 H      6   5   4     2.078490838815   111.67742829   208.78486957
 H      6   5   4     2.089800906727   111.13433116    89.40539594
 H      7   3   2     2.074285556208   109.83657327    63.18122120
 H      7   3   2     2.080460222798   112.35177397   184.65254626

---------------------
BASIS SET INFORMATION
---------------------
There are 3 groups of distinct atoms

 Group   1 Type O   : 11s6p2d1f contracted to 5s3p2d1f pattern {62111/411/11/1}
 Group   2 Type C   : 11s6p2d1f contracted to 5s3p2d1f pattern {62111/411/11/1}
 Group   3 Type H   : 5s1p contracted to 3s1p pattern {311/1}

Atom   0O    basis set group =>   1
Atom   1O    basis set group =>   1
Atom   2C    basis set group =>   2
Atom   3C    basis set group =>   2
Atom   4C    basis set group =>   2
Atom   5C    basis set group =>   2
Atom   6C    basis set group =>   2
Atom   7H    basis set group =>   3
Atom   8H    basis set group =>   3
Atom   9H    basis set group =>   3
Atom  10H    basis set group =>   3
Atom  11H    basis set group =>   3
Atom  12H    basis set group =>   3
Atom  13H    basis set group =>   3
Atom  14H    basis set group =>   3
Atom  15H    basis set group =>   3
---------------------------------
AUXILIARY/J BASIS SET INFORMATION
---------------------------------
There are 3 groups of distinct atoms

 Group   1 Type O   : 12s5p4d2f1g contracted to 6s4p3d1f1g pattern {711111/2111/211/2/1}
 Group   2 Type C   : 12s5p4d2f1g contracted to 6s4p3d1f1g pattern {711111/2111/211/2/1}
 Group   3 Type H   : 5s2p1d contracted to 3s1p1d pattern {311/2/1}

Atom   0O    basis set group =>   1
Atom   1O    basis set group =>   1
Atom   2C    basis set group =>   2
Atom   3C    basis set group =>   2
Atom   4C    basis set group =>   2
Atom   5C    basis set group =>   2
Atom   6C    basis set group =>   2
Atom   7H    basis set group =>   3
Atom   8H    basis set group =>   3
Atom   9H    basis set group =>   3
Atom  10H    basis set group =>   3
Atom  11H    basis set group =>   3
Atom  12H    basis set group =>   3
Atom  13H    basis set group =>   3
Atom  14H    basis set group =>   3
Atom  15H    basis set group =>   3


           ************************************************************
           *        Program running with 8 parallel MPI-processes     *
           *              working on a common directory               *
           ************************************************************
------------------------------------------------------------------------------
                           ORCA GTO INTEGRAL CALCULATION
                           -- RI-GTO INTEGRALS CHOSEN --
------------------------------------------------------------------------------
------------------------------------------------------------------------------
                   ___                                                        
                  /   \      - P O W E R E D   B Y -                         
                 /     \                                                     
                 |  |  |   _    _      __       _____    __    __             
                 |  |  |  | |  | |    /  \     |  _  \  |  |  /  |          
                  \  \/   | |  | |   /    \    | | | |  |  | /  /          
                 / \  \   | |__| |  /  /\  \   | |_| |  |  |/  /          
                |  |  |   |  __  | /  /__\  \  |    /   |      \           
                |  |  |   | |  | | |   __   |  |    \   |  |\   \          
                \     /   | |  | | |  |  |  |  | |\  \  |  | \   \       
                 \___/    |_|  |_| |__|  |__|  |_| \__\ |__|  \__/        
                                                                              
                      - O R C A' S   B I G   F R I E N D -                    
                                      &                                       
                       - I N T E G R A L  F E E D E R -                       
                                                                              
 v1 FN, 2020, v2 2021                                                         
------------------------------------------------------------------------------


Reading SHARK input file TS_vdwLSy_ll_ad_1-4_0-1_sp_orca.SHARKINP.tmp ... ok
----------------------
SHARK INTEGRAL PACKAGE
----------------------

Number of atoms                             ...     16
Number of basis functions                   ...    271
Number of shells                            ...    113
Maximum angular momentum                    ...      3
Integral batch strategy                     ... SHARK/LIBINT Hybrid
RI-J (if used) integral strategy            ... SPLIT-RIJ (Revised 2003 algorithm where possible)
Printlevel                                  ...      1
Contraction scheme used                     ... SEGMENTED contraction
Coulomb Range Separation                    ... NOT USED
Exchange Range Separation                   ... NOT USED
Finite Nucleus Model                        ... NOT USED
Auxiliary Coulomb fitting basis             ... AVAILABLE
   # of basis functions in Aux-J            ...    442
   # of shells in Aux-J                     ...    150
   Maximum angular momentum in Aux-J        ...      4
Auxiliary J/K fitting basis                 ... NOT available
Auxiliary Correlation fitting basis         ... NOT available
Auxiliary 'external' fitting basis          ... NOT available
Integral threshold                          ...     1.000000e-10
Primitive cut-off                           ...     1.000000e-11
Primitive pair pre-selection threshold      ...     1.000000e-11

Calculating pre-screening integrals         ... done (  0.0 sec) Dimension = 113
Organizing shell pair data                  ... done (  0.0 sec)
Shell pair information
Total number of shell pairs                 ...      6441
Shell pairs after pre-screening             ...      6090
Total number of primitive shell pairs       ...     19096
Primitive shell pairs kept                  ...     13891
          la=0 lb=0:   1777 shell pairs
          la=1 lb=0:   1769 shell pairs
          la=1 lb=1:    457 shell pairs
          la=2 lb=0:    829 shell pairs
          la=2 lb=1:    411 shell pairs
          la=2 lb=2:    102 shell pairs
          la=3 lb=0:    412 shell pairs
          la=3 lb=1:    207 shell pairs
          la=3 lb=2:     98 shell pairs
          la=3 lb=3:     28 shell pairs

Calculating one electron integrals          ... done (  0.0 sec)
Calculating RI/J V-Matrix + Cholesky decomp.... done (  0.0 sec)
Calculating Nuclear repulsion               ... done (  0.0 sec) ENN=    326.282222470832 Eh

SHARK setup successfully completed in   0.2 seconds

Maximum memory used throughout the entire GTOINT-calculation: 19.5 MB


           ************************************************************
           *        Program running with 8 parallel MPI-processes     *
           *              working on a common directory               *
           ************************************************************
-------------------------------------------------------------------------------
                                 ORCA SCF
-------------------------------------------------------------------------------

------------
SCF SETTINGS
------------
Hamiltonian:
 Density Functional     Method          .... DFT(GTOs)
 Exchange Functional    Exchange        .... PBE
   PBE kappa parameter   XKappa         ....  0.804000
   PBE mue parameter    XMuePBE         ....  0.219520
 Correlation Functional Correlation     .... PBE
   PBE beta parameter  CBetaPBE         ....  0.066725
 LDA part of GGA corr.  LDAOpt          .... PW91-LDA
 Gradients option       PostSCFGGA      .... off
 Hybrid DFT is turned on
   Fraction HF Exchange ScalHFX         ....  0.250000
   Scaling of DF-GGA-X  ScalDFX         ....  0.750000
   Scaling of DF-GGA-C  ScalDFC         ....  1.000000
   Scaling of DF-LDA-C  ScalLDAC        ....  1.000000
   Perturbative correction              ....  0.000000
   Density functional embedding theory  .... OFF
   NL short-range parameter             ....  6.900000
 RI-approximation to the Coulomb term is turned on
   Number of AuxJ basis functions       .... 442
   RIJ-COSX (HFX calculated with COS-X)).... on


General Settings:
 Integral files         IntName         .... TS_vdwLSy_ll_ad_1-4_0-1_sp_orca
 Hartree-Fock type      HFTyp           .... UHF
 Total Charge           Charge          ....    0
 Multiplicity           Mult            ....    2
 Number of Electrons    NEL             ....   55
 Basis Dimension        Dim             ....  271
 Nuclear Repulsion      ENuc            ....    326.2822224708 Eh

Convergence Acceleration:
 DIIS                   CNVDIIS         .... on
   Start iteration      DIISMaxIt       ....    12
   Startup error        DIISStart       ....  0.200000
   # of expansion vecs  DIISMaxEq       ....     5
   Bias factor          DIISBfac        ....   1.050
   Max. coefficient     DIISMaxC        ....  10.000
 Trust-Rad. Augm. Hess. CNVTRAH         .... auto
   Auto Start mean grad. ratio tolernc. ....  1.125000
   Auto Start start iteration           ....    20
   Auto Start num. interpolation iter.  ....    10
   Max. Number of Micro iterations      ....    16
   Max. Number of Macro iterations      .... Maxiter - #DIIS iter
   Number of Davidson start vectors     ....     2
   Converg. threshold I  (grad. norm)   ....   5.000e-05
   Converg. threshold II (energy diff.) ....   1.000e-06
   Grad. Scal. Fac. for Micro threshold ....   0.100
   Minimum threshold for Micro iter.    ....   0.010
   NR start threshold (gradient norm)   ....   0.001
   Initial trust radius                 ....   0.400
   Minimum AH scaling param. (alpha)    ....   1.000
   Maximum AH scaling param. (alpha)    .... 1000.000
   Orbital update algorithm             .... Taylor
   White noise on init. David. guess    .... on
   Maximum white noise                  ....   0.010
   Quad. conv. algorithm                .... NR
 SOSCF                  CNVSOSCF        .... off
 Level Shifting         CNVShift        .... on
   Level shift para.    LevelShift      ....    0.2500
   Turn off err/grad.   ShiftErr        ....    0.0010
 Zerner damping         CNVZerner       .... off
 Static damping         CNVDamp         .... on
   Fraction old density DampFac         ....    0.7000
   Max. Damping (<1)    DampMax         ....    0.9800
   Min. Damping (>=0)   DampMin         ....    0.0000
   Turn off err/grad.   DampErr         ....    0.1000
 Fernandez-Rico         CNVRico         .... off

SCF Procedure:
 Maximum # iterations   MaxIter         ....   250
 SCF integral mode      SCFMode         .... Direct
   Integral package                     .... SHARK and LIBINT hybrid scheme
 Reset frequency        DirectResetFreq ....    20
 Integral Threshold     Thresh          ....  1.000e-10 Eh
 Primitive CutOff       TCut            ....  1.000e-11 Eh

Convergence Tolerance:
 Convergence Check Mode ConvCheckMode   .... Total+1el-Energy
 Convergence forced     ConvForced      .... 0
 Energy Change          TolE            ....  1.000e-06 Eh
 1-El. energy change                    ....  1.000e-03 Eh
 DIIS Error             TolErr          ....  1.000e-06


Diagonalization of the overlap matrix:
Smallest eigenvalue                        ... 6.461e-05
Time for diagonalization                   ...    0.008 sec
Threshold for overlap eigenvalues          ... 1.000e-08
Number of eigenvalues below threshold      ... 0
Time for construction of square roots      ...    0.005 sec
Total time needed                          ...    0.013 sec

Time for model grid setup =    0.052 sec

------------------------------
INITIAL GUESS: MODEL POTENTIAL
------------------------------
Loading Hartree-Fock densities                     ... done
Calculating cut-offs                               ... done
Initializing the effective Hamiltonian             ... done
Setting up the integral package (SHARK)            ... done
Starting the Coulomb interaction                   ... done (   0.0 sec)
Reading the grid                                   ... done
Mapping shells                                     ... done
Starting the XC term evaluation                    ... done (   0.1 sec)
  promolecular density results
     # of electrons  =     54.995096038
     EX              =    -44.455252475
     EC              =     -1.824958977
     EX+EC           =    -46.280211452
Transforming the Hamiltonian                       ... done (   0.0 sec)
Diagonalizing the Hamiltonian                      ... done (   0.0 sec)
Back transforming the eigenvectors                 ... done (   0.0 sec)
Now organizing SCF variables                       ... done
                      ------------------
                      INITIAL GUESS DONE (   0.2 sec)
                      ------------------
-------------------
DFT GRID GENERATION
-------------------

General Integration Accuracy     IntAcc      ... 4.388
Radial Grid Type                 RadialGrid  ... OptM3 with GC (2021)
Angular Grid (max. ang.)         AngularGrid ... 4 (Lebedev-302)
Angular grid pruning method      GridPruning ... 4 (adaptive)
Weight generation scheme         WeightScheme... Becke
Basis function cutoff            BFCut       ... 1.0000e-10
Integration weight cutoff        WCut        ... 1.0000e-14
Angular grids for H and He will be reduced by one unit
Partially contracted basis set               ... off
Rotationally invariant grid construction     ... off

Total number of grid points                  ...    71024
Total number of batches                      ...     1118
Average number of points per batch           ...       63
Average number of grid points per atom       ...     4439
Time for grid setup =    0.285 sec

--------------------
COSX GRID GENERATION
--------------------

GRIDX 1
-------
General Integration Accuracy     IntAcc      ... 3.816
Radial Grid Type                 RadialGrid  ... OptM3 with GC (2021)
Angular Grid (max. ang.)         AngularGrid ... 1 (Lebedev-50)
Angular grid pruning method      GridPruning ... 4 (adaptive)
Weight generation scheme         WeightScheme... Becke
Basis function cutoff            BFCut       ... 1.0000e-10
Integration weight cutoff        WCut        ... 1.0000e-14
Angular grids for H and He will be reduced by one unit
Partially contracted basis set               ... on
Rotationally invariant grid construction     ... off

Total number of grid points                  ...     9094
Total number of batches                      ...      150
Average number of points per batch           ...       60
Average number of grid points per atom       ...      568
UseSFitting                                  ... on

GRIDX 2
-------
General Integration Accuracy     IntAcc      ... 4.020
Radial Grid Type                 RadialGrid  ... OptM3 with GC (2021)
Angular Grid (max. ang.)         AngularGrid ... 2 (Lebedev-110)
Angular grid pruning method      GridPruning ... 4 (adaptive)
Weight generation scheme         WeightScheme... Becke
Basis function cutoff            BFCut       ... 1.0000e-10
Integration weight cutoff        WCut        ... 1.0000e-14
Angular grids for H and He will be reduced by one unit
Partially contracted basis set               ... on
Rotationally invariant grid construction     ... off

Total number of grid points                  ...    19398
Total number of batches                      ...      310
Average number of points per batch           ...       62
Average number of grid points per atom       ...     1212
UseSFitting                                  ... on

GRIDX 3
-------
General Integration Accuracy     IntAcc      ... 4.338
Radial Grid Type                 RadialGrid  ... OptM3 with GC (2021)
Angular Grid (max. ang.)         AngularGrid ... 3 (Lebedev-194)
Angular grid pruning method      GridPruning ... 4 (adaptive)
Weight generation scheme         WeightScheme... Becke
Basis function cutoff            BFCut       ... 1.0000e-10
Integration weight cutoff        WCut        ... 1.0000e-14
Angular grids for H and He will be reduced by one unit
Partially contracted basis set               ... on
Rotationally invariant grid construction     ... off

Total number of grid points                  ...    42462
Total number of batches                      ...      671
Average number of points per batch           ...       63
Average number of grid points per atom       ...     2654
UseSFitting                                  ... on

Time for X-Grid setup             =    0.251 sec

--------------
SCF ITERATIONS
--------------
ITER       Energy         Delta-E        Max-DP      RMS-DP      [F,P]     Damp
               ***  Starting incremental Fock matrix formation  ***
  0   -345.7393893114   0.000000000000 0.02691846  0.00060518  0.1441274 0.7000
  1   -345.8335911345  -0.094201823129 0.01655107  0.00042482  0.0522619 0.7000
                               ***Turning on DIIS***
  2   -345.8677969917  -0.034205857188 0.02814877  0.00064603  0.0159690 0.0000
  3   -345.9254337290  -0.057636737246 0.01646718  0.00035678  0.0331301 0.0000
  4   -345.9387528857  -0.013319156747 0.00527904  0.00010781  0.0132617 0.0000
  5   -345.9401473006  -0.001394414908 0.00403087  0.00005719  0.0071984 0.0000
  6   -345.9407545239  -0.000607223266 0.00441642  0.00004869  0.0049101 0.0000
  7   -345.9411563626  -0.000401838735 0.00377845  0.00003489  0.0041163 0.0000
  8   -345.9413745336  -0.000218170946 0.00344616  0.00003648  0.0034317 0.0000
  9   -345.9415486063  -0.000174072755 0.00177985  0.00002144  0.0013118 0.0000
 10   -345.9416071964  -0.000058590020 0.00216160  0.00002880  0.0007274 0.0000
               *** Restarting incremental Fock matrix formation ***
                                   *** Resetting DIIS ***
 11   -345.9416470946  -0.000039898272 0.00052167  0.00000958  0.0004018 0.0000
 12   -345.9416470172   0.000000077462 0.00030798  0.00000573  0.0007708 0.0000
 13   -345.9416510950  -0.000004077789 0.00014648  0.00000233  0.0002328 0.0000
 14   -345.9416518445  -0.000000749514 0.00023054  0.00000360  0.0001579 0.0000
 15   -345.9416526799  -0.000000835424 0.00016197  0.00000214  0.0000884 0.0000
 16   -345.9416528509  -0.000000171031 0.00005841  0.00000093  0.0000807 0.0000
                 **** Energy Check signals convergence ****

               *****************************************************
               *                     SUCCESS                       *
               *           SCF CONVERGED AFTER  17 CYCLES          *
               *****************************************************

Old exchange energy                            =    -11.354847738 Eh
New exchange energy                            =    -11.354859245 Eh
Exchange energy change after final integration =     -0.000011507 Eh
Total energy after final integration           =   -345.941664408 Eh
Final COS-X integration done in                =     2.339 sec

----------------
TOTAL SCF ENERGY
----------------

Total Energy       :         -345.94166441 Eh           -9413.55126 eV

Components:
Nuclear Repulsion  :          326.28222247 Eh            8878.59065 eV
Electronic Energy  :         -672.22388688 Eh          -18292.14192 eV
One Electron Energy:        -1117.94511970 Eh          -30420.83327 eV
Two Electron Energy:          445.72123283 Eh           12128.69136 eV
Max COSX asymmetry :            0.00000033 Eh               0.00001 eV

Virial components:
Potential Energy   :         -690.24296920 Eh          -18782.46607 eV
Kinetic Energy     :          344.30130479 Eh            9368.91481 eV
Virial Ratio       :            2.00476431


DFT components:
N(Alpha)           :       27.999986991584 electrons
N(Beta)            :       26.999991404490 electrons
N(Total)           :       54.999978396073 electrons
E(X)               :      -34.013869608916 Eh       
E(C)               :       -1.827305182054 Eh       
E(XC)              :      -35.841174790969 Eh       
DFET-embed. en.    :        0.000000000000 Eh       

---------------
SCF CONVERGENCE
---------------

  Last Energy change         ...   -4.9607e-08  Tolerance :   1.0000e-06
  Last MAX-Density change    ...    0.0000e+00  Tolerance :   1.0000e-05
  Last RMS-Density change    ...    0.0000e+00  Tolerance :   1.0000e-06
  Last DIIS Error            ...    1.9040e-05  Tolerance :   1.0000e-06

             **** THE GBW FILE WAS UPDATED (TS_vdwLSy_ll_ad_1-4_0-1_sp_orca.gbw) ****
             **** DENSITY TS_vdwLSy_ll_ad_1-4_0-1_sp_orca.scfp WAS UPDATED ****
             **** ENERGY FILE WAS UPDATED (TS_vdwLSy_ll_ad_1-4_0-1_sp_orca.en.tmp) ****
----------------------
UHF SPIN CONTAMINATION
----------------------

Warning: in a DFT calculation there is little theoretical justification to 
         calculate <S**2> as in Hartree-Fock theory. We will do it anyways
         but you should keep in mind that the values have only limited relevance

Expectation value of <S**2>     :     0.809627
Ideal value S*(S+1) for S=0.5   :     0.750000
Deviation                       :     0.059627

             **** THE GBW FILE WAS UPDATED (TS_vdwLSy_ll_ad_1-4_0-1_sp_orca.gbw) ****
             **** DENSITY TS_vdwLSy_ll_ad_1-4_0-1_sp_orca.scfp WAS UPDATED ****
----------------
ORBITAL ENERGIES
----------------
                 SPIN UP ORBITALS
  NO   OCC          E(Eh)            E(eV) 
   0   1.0000     -19.242366      -523.6114 
   1   1.0000     -19.206658      -522.6397 
   2   1.0000     -10.278590      -279.6946 
   3   1.0000     -10.274439      -279.5817 
   4   1.0000     -10.234813      -278.5034 
   5   1.0000     -10.233237      -278.4605 
   6   1.0000     -10.220411      -278.1115 
   7   1.0000      -1.067619       -29.0514 
   8   1.0000      -0.966256       -26.2932 
   9   1.0000      -0.849805       -23.1244 
  10   1.0000      -0.748151       -20.3582 
  11   1.0000      -0.725303       -19.7365 
  12   1.0000      -0.587303       -15.9813 
  13   1.0000      -0.580568       -15.7981 
  14   1.0000      -0.542333       -14.7576 
  15   1.0000      -0.501852       -13.6561 
  16   1.0000      -0.478124       -13.0104 
  17   1.0000      -0.460103       -12.5200 
  18   1.0000      -0.412708       -11.2303 
  19   1.0000      -0.400842       -10.9075 
  20   1.0000      -0.387889       -10.5550 
  21   1.0000      -0.383046       -10.4232 
  22   1.0000      -0.370894       -10.0925 
  23   1.0000      -0.358238        -9.7481 
  24   1.0000      -0.344151        -9.3648 
  25   1.0000      -0.324230        -8.8227 
  26   1.0000      -0.267575        -7.2811 
  27   1.0000      -0.207690        -5.6515 
  28   0.0000      -0.037315        -1.0154 
  29   0.0000       0.044959         1.2234 
  30   0.0000       0.068373         1.8605 
  31   0.0000       0.079850         2.1728 
  32   0.0000       0.083736         2.2786 
  33   0.0000       0.096602         2.6287 
  34   0.0000       0.104988         2.8569 
  35   0.0000       0.113549         3.0898 
  36   0.0000       0.120058         3.2669 
  37   0.0000       0.138445         3.7673 
  38   0.0000       0.149404         4.0655 
  39   0.0000       0.156370         4.2550 
  40   0.0000       0.179740         4.8910 
  41   0.0000       0.188305         5.1240 
  42   0.0000       0.199293         5.4230 
  43   0.0000       0.224821         6.1177 
  44   0.0000       0.232129         6.3165 
  45   0.0000       0.250642         6.8203 
  46   0.0000       0.255781         6.9601 
  47   0.0000       0.266467         7.2509 
  48   0.0000       0.308288         8.3889 
  49   0.0000       0.333581         9.0772 
  50   0.0000       0.353392         9.6163 
  51   0.0000       0.376754        10.2520 
  52   0.0000       0.382342        10.4041 
  53   0.0000       0.395898        10.7729 
  54   0.0000       0.406117        11.0510 
  55   0.0000       0.408716        11.1217 
  56   0.0000       0.417511        11.3610 
  57   0.0000       0.423630        11.5276 
  58   0.0000       0.429335        11.6828 
  59   0.0000       0.435537        11.8516 
  60   0.0000       0.440014        11.9734 
  61   0.0000       0.446367        12.1463 
  62   0.0000       0.449027        12.2186 
  63   0.0000       0.464124        12.6295 
  64   0.0000       0.467451        12.7200 
  65   0.0000       0.474363        12.9081 
  66   0.0000       0.487405        13.2630 
  67   0.0000       0.500368        13.6157 
  68   0.0000       0.508895        13.8477 
  69   0.0000       0.529641        14.4123 
  70   0.0000       0.550285        14.9740 
  71   0.0000       0.595141        16.1946 
  72   0.0000       0.603424        16.4200 
  73   0.0000       0.623599        16.9690 
  74   0.0000       0.629778        17.1371 
  75   0.0000       0.656655        17.8685 
  76   0.0000       0.699196        19.0261 
  77   0.0000       0.735163        20.0048 
  78   0.0000       0.741483        20.1768 
  79   0.0000       0.802361        21.8333 
  80   0.0000       0.818769        22.2798 
  81   0.0000       0.824321        22.4309 
  82   0.0000       0.865288        23.5457 
  83   0.0000       0.884612        24.0715 
  84   0.0000       0.901140        24.5213 
  85   0.0000       0.936881        25.4938 
  86   0.0000       0.947438        25.7811 
  87   0.0000       0.954589        25.9757 
  88   0.0000       0.970919        26.4200 
  89   0.0000       0.995954        27.1013 
  90   0.0000       1.000750        27.2318 
  91   0.0000       1.016390        27.6574 
  92   0.0000       1.026455        27.9313 
  93   0.0000       1.098402        29.8890 
  94   0.0000       1.109154        30.1816 
  95   0.0000       1.120435        30.4886 
  96   0.0000       1.127276        30.6747 
  97   0.0000       1.142072        31.0774 
  98   0.0000       1.167797        31.7774 
  99   0.0000       1.189833        32.3770 
 100   0.0000       1.214337        33.0438 
 101   0.0000       1.224548        33.3216 
 102   0.0000       1.241595        33.7855 
 103   0.0000       1.255625        34.1673 
 104   0.0000       1.281011        34.8581 
 105   0.0000       1.339683        36.4546 
 106   0.0000       1.352295        36.7978 
 107   0.0000       1.394825        37.9551 
 108   0.0000       1.455970        39.6190 
 109   0.0000       1.464853        39.8607 
 110   0.0000       1.487425        40.4749 
 111   0.0000       1.545888        42.0657 
 112   0.0000       1.562003        42.5043 
 113   0.0000       1.573463        42.8161 
 114   0.0000       1.605148        43.6783 
 115   0.0000       1.627336        44.2821 
 116   0.0000       1.629428        44.3390 
 117   0.0000       1.644453        44.7479 
 118   0.0000       1.664410        45.2909 
 119   0.0000       1.669314        45.4243 
 120   0.0000       1.710545        46.5463 
 121   0.0000       1.721971        46.8572 
 122   0.0000       1.749798        47.6144 
 123   0.0000       1.773146        48.2497 
 124   0.0000       1.792888        48.7870 
 125   0.0000       1.808097        49.2008 
 126   0.0000       1.837846        50.0103 
 127   0.0000       1.890817        51.4517 
 128   0.0000       1.895254        51.5725 
 129   0.0000       1.916274        52.1445 
 130   0.0000       1.933448        52.6118 
 131   0.0000       1.965448        53.4826 
 132   0.0000       1.997396        54.3519 
 133   0.0000       2.010141        54.6987 
 134   0.0000       2.050258        55.7903 
 135   0.0000       2.082038        56.6551 
 136   0.0000       2.106570        57.3227 
 137   0.0000       2.115118        57.5553 
 138   0.0000       2.136723        58.1432 
 139   0.0000       2.158065        58.7239 
 140   0.0000       2.169579        59.0373 
 141   0.0000       2.197142        59.7873 
 142   0.0000       2.248607        61.1877 
 143   0.0000       2.255760        61.3824 
 144   0.0000       2.297198        62.5099 
 145   0.0000       2.306035        62.7504 
 146   0.0000       2.309928        62.8563 
 147   0.0000       2.356381        64.1204 
 148   0.0000       2.370006        64.4911 
 149   0.0000       2.409015        65.5526 
 150   0.0000       2.425254        65.9945 
 151   0.0000       2.445158        66.5361 
 152   0.0000       2.466368        67.1133 
 153   0.0000       2.481908        67.5362 
 154   0.0000       2.498576        67.9897 
 155   0.0000       2.526138        68.7397 
 156   0.0000       2.547878        69.3313 
 157   0.0000       2.569277        69.9136 
 158   0.0000       2.609236        71.0009 
 159   0.0000       2.618731        71.2593 
 160   0.0000       2.641725        71.8850 
 161   0.0000       2.659077        72.3572 
 162   0.0000       2.668073        72.6019 
 163   0.0000       2.681133        72.9573 
 164   0.0000       2.694783        73.3288 
 165   0.0000       2.705370        73.6169 
 166   0.0000       2.736529        74.4647 
 167   0.0000       2.747232        74.7560 
 168   0.0000       2.750026        74.8320 
 169   0.0000       2.757567        75.0372 
 170   0.0000       2.797623        76.1272 
 171   0.0000       2.822535        76.8051 
 172   0.0000       2.854992        77.6883 
 173   0.0000       2.874468        78.2182 
 174   0.0000       2.895749        78.7973 
 175   0.0000       2.914084        79.2962 
 176   0.0000       2.948105        80.2220 
 177   0.0000       2.957633        80.4813 
 178   0.0000       3.000067        81.6360 
 179   0.0000       3.011551        81.9485 
 180   0.0000       3.024526        82.3015 
 181   0.0000       3.066992        83.4571 
 182   0.0000       3.071731        83.5860 
 183   0.0000       3.114457        84.7487 
 184   0.0000       3.123615        84.9979 
 185   0.0000       3.148972        85.6879 
 186   0.0000       3.160601        86.0043 
 187   0.0000       3.181236        86.5658 
 188   0.0000       3.224342        87.7388 
 189   0.0000       3.240246        88.1716 
 190   0.0000       3.271327        89.0173 
 191   0.0000       3.298294        89.7511 
 192   0.0000       3.315243        90.2124 
 193   0.0000       3.349894        91.1553 
 194   0.0000       3.360952        91.4561 
 195   0.0000       3.383010        92.0564 
 196   0.0000       3.411267        92.8253 
 197   0.0000       3.446901        93.7950 
 198   0.0000       3.461424        94.1901 
 199   0.0000       3.487185        94.8911 
 200   0.0000       3.524365        95.9028 
 201   0.0000       3.543179        96.4148 
 202   0.0000       3.591263        97.7232 
 203   0.0000       3.616251        98.4032 
 204   0.0000       3.656081        99.4870 
 205   0.0000       3.667682        99.8027 
 206   0.0000       3.693029       100.4924 
 207   0.0000       3.750024       102.0433 
 208   0.0000       3.758781       102.2816 
 209   0.0000       3.774528       102.7101 
 210   0.0000       3.812623       103.7467 
 211   0.0000       3.847836       104.7050 
 212   0.0000       3.891632       105.8967 
 213   0.0000       3.917120       106.5903 
 214   0.0000       3.949863       107.4812 
 215   0.0000       3.991731       108.6205 
 216   0.0000       4.007603       109.0524 
 217   0.0000       4.041852       109.9844 
 218   0.0000       4.083605       111.1205 
 219   0.0000       4.101437       111.6058 
 220   0.0000       4.124421       112.2312 
 221   0.0000       4.181783       113.7921 
 222   0.0000       4.203881       114.3934 
 223   0.0000       4.213297       114.6496 
 224   0.0000       4.279988       116.4644 
 225   0.0000       4.297287       116.9351 
 226   0.0000       4.318964       117.5250 
 227   0.0000       4.345641       118.2509 
 228   0.0000       4.389965       119.4570 
 229   0.0000       4.516391       122.8972 
 230   0.0000       4.561848       124.1342 
 231   0.0000       4.599821       125.1675 
 232   0.0000       4.669062       127.0516 
 233   0.0000       4.703288       127.9830 
 234   0.0000       4.764510       129.6489 
 235   0.0000       4.856781       132.1597 
 236   0.0000       4.890180       133.0686 
 237   0.0000       4.943009       134.5061 
 238   0.0000       4.981184       135.5449 
 239   0.0000       5.007178       136.2522 
 240   0.0000       5.061693       137.7357 
 241   0.0000       5.118219       139.2738 
 242   0.0000       5.165406       140.5578 
 243   0.0000       5.170817       140.7051 
 244   0.0000       5.387380       146.5981 
 245   0.0000       5.401768       146.9896 
 246   0.0000       5.439899       148.0272 
 247   0.0000       5.452561       148.3717 
 248   0.0000       5.533282       150.5683 
 249   0.0000       5.697820       155.0456 
 250   0.0000       5.782741       157.3564 
 251   0.0000       5.851986       159.2406 
 252   0.0000       6.067273       165.0989 
 253   0.0000       6.226298       169.4262 
 254   0.0000       6.348728       172.7577 
 255   0.0000       6.435410       175.1164 
 256   0.0000       6.566101       178.6727 
 257   0.0000       6.611169       179.8990 
 258   0.0000       6.739874       183.4013 
 259   0.0000       6.839146       186.1026 
 260   0.0000       6.882093       187.2713 
 261   0.0000       7.030386       191.3065 
 262   0.0000       7.125721       193.9007 
 263   0.0000       7.588727       206.4998 
 264   0.0000      22.327525       607.5628 
 265   0.0000      22.498944       612.2274 
 266   0.0000      22.563926       613.9956 
 267   0.0000      22.605089       615.1157 
 268   0.0000      22.719346       618.2248 
 269   0.0000      43.462486      1182.6744 
 270   0.0000      44.165585      1201.8067 

                 SPIN DOWN ORBITALS
  NO   OCC          E(Eh)            E(eV) 
   0   1.0000     -19.242593      -523.6176 
   1   1.0000     -19.192485      -522.2541 
   2   1.0000     -10.273954      -279.5685 
   3   1.0000     -10.268655      -279.4243 
   4   1.0000     -10.235467      -278.5212 
   5   1.0000     -10.233828      -278.4766 
   6   1.0000     -10.220299      -278.1085 
   7   1.0000      -1.061621       -28.8882 
   8   1.0000      -0.938781       -25.5455 
   9   1.0000      -0.842773       -22.9330 
  10   1.0000      -0.744957       -20.2713 
  11   1.0000      -0.717030       -19.5114 
  12   1.0000      -0.579952       -15.7813 
  13   1.0000      -0.574554       -15.6344 
  14   1.0000      -0.537800       -14.6343 
  15   1.0000      -0.491319       -13.3695 
  16   1.0000      -0.473551       -12.8860 
  17   1.0000      -0.453043       -12.3279 
  18   1.0000      -0.402959       -10.9651 
  19   1.0000      -0.391154       -10.6438 
  20   1.0000      -0.385045       -10.4776 
  21   1.0000      -0.374825       -10.1995 
  22   1.0000      -0.369681       -10.0595 
  23   1.0000      -0.348094        -9.4721 
  24   1.0000      -0.336674        -9.1614 
  25   1.0000      -0.311912        -8.4876 
  26   1.0000      -0.257062        -6.9950 
  27   0.0000      -0.070781        -1.9260 
  28   0.0000       0.006620         0.1801 
  29   0.0000       0.046732         1.2716 
  30   0.0000       0.071287         1.9398 
  31   0.0000       0.081685         2.2228 
  32   0.0000       0.088496         2.4081 
  33   0.0000       0.098248         2.6735 
  34   0.0000       0.108225         2.9450 
  35   0.0000       0.114379         3.1124 
  36   0.0000       0.122180         3.3247 
  37   0.0000       0.140838         3.8324 
  38   0.0000       0.151852         4.1321 
  39   0.0000       0.158452         4.3117 
  40   0.0000       0.181853         4.9485 
  41   0.0000       0.189684         5.1616 
  42   0.0000       0.200606         5.4588 
  43   0.0000       0.225908         6.1473 
  44   0.0000       0.234583         6.3833 
  45   0.0000       0.252122         6.8606 
  46   0.0000       0.262327         7.1383 
  47   0.0000       0.279211         7.5977 
  48   0.0000       0.311415         8.4740 
  49   0.0000       0.341082         9.2813 
  50   0.0000       0.357178         9.7193 
  51   0.0000       0.378546        10.3008 
  52   0.0000       0.387195        10.5361 
  53   0.0000       0.400354        10.8942 
  54   0.0000       0.407681        11.0936 
  55   0.0000       0.415545        11.3076 
  56   0.0000       0.423581        11.5262 
  57   0.0000       0.428047        11.6477 
  58   0.0000       0.434133        11.8133 
  59   0.0000       0.438333        11.9276 
  60   0.0000       0.441759        12.0209 
  61   0.0000       0.448867        12.2143 
  62   0.0000       0.450664        12.2632 
  63   0.0000       0.468980        12.7616 
  64   0.0000       0.471981        12.8433 
  65   0.0000       0.477306        12.9882 
  66   0.0000       0.488696        13.2981 
  67   0.0000       0.502557        13.6753 
  68   0.0000       0.514876        14.0105 
  69   0.0000       0.534175        14.5356 
  70   0.0000       0.555409        15.1134 
  71   0.0000       0.601444        16.3661 
  72   0.0000       0.607329        16.5263 
  73   0.0000       0.627926        17.0867 
  74   0.0000       0.634717        17.2715 
  75   0.0000       0.659041        17.9334 
  76   0.0000       0.702047        19.1037 
  77   0.0000       0.736725        20.0473 
  78   0.0000       0.744332        20.2543 
  79   0.0000       0.808226        21.9930 
  80   0.0000       0.824771        22.4432 
  81   0.0000       0.827076        22.5059 
  82   0.0000       0.869632        23.6639 
  83   0.0000       0.887258        24.1435 
  84   0.0000       0.903392        24.5825 
  85   0.0000       0.940480        25.5918 
  86   0.0000       0.949576        25.8393 
  87   0.0000       0.959734        26.1157 
  88   0.0000       0.974819        26.5262 
  89   0.0000       0.999201        27.1897 
  90   0.0000       1.011297        27.5188 
  91   0.0000       1.027222        27.9521 
  92   0.0000       1.031614        28.0717 
  93   0.0000       1.101664        29.9778 
  94   0.0000       1.112324        30.2679 
  95   0.0000       1.125042        30.6140 
  96   0.0000       1.129936        30.7471 
  97   0.0000       1.152837        31.3703 
  98   0.0000       1.171876        31.8884 
  99   0.0000       1.192857        32.4593 
 100   0.0000       1.215970        33.0882 
 101   0.0000       1.229439        33.4547 
 102   0.0000       1.243751        33.8442 
 103   0.0000       1.261779        34.3348 
 104   0.0000       1.284678        34.9579 
 105   0.0000       1.342933        36.5431 
 106   0.0000       1.357785        36.9472 
 107   0.0000       1.408682        38.3322 
 108   0.0000       1.463976        39.8368 
 109   0.0000       1.471211        40.0337 
 110   0.0000       1.492707        40.6186 
 111   0.0000       1.550960        42.2038 
 112   0.0000       1.564103        42.5614 
 113   0.0000       1.578332        42.9486 
 114   0.0000       1.608446        43.7680 
 115   0.0000       1.629379        44.3377 
 116   0.0000       1.633945        44.4619 
 117   0.0000       1.647484        44.8303 
 118   0.0000       1.669609        45.4324 
 119   0.0000       1.672269        45.5048 
 120   0.0000       1.713993        46.6401 
 121   0.0000       1.729345        47.0579 
 122   0.0000       1.761006        47.9194 
 123   0.0000       1.775450        48.3125 
 124   0.0000       1.795086        48.8468 
 125   0.0000       1.809628        49.2425 
 126   0.0000       1.841744        50.1164 
 127   0.0000       1.894590        51.5544 
 128   0.0000       1.902142        51.7599 
 129   0.0000       1.922431        52.3120 
 130   0.0000       1.938494        52.7491 
 131   0.0000       1.968264        53.5592 
 132   0.0000       2.002278        54.4848 
 133   0.0000       2.016069        54.8600 
 134   0.0000       2.056546        55.9615 
 135   0.0000       2.089474        56.8575 
 136   0.0000       2.110658        57.4339 
 137   0.0000       2.118177        57.6385 
 138   0.0000       2.142562        58.3021 
 139   0.0000       2.159844        58.7723 
 140   0.0000       2.175130        59.1883 
 141   0.0000       2.202214        59.9253 
 142   0.0000       2.255060        61.3633 
 143   0.0000       2.264723        61.6262 
 144   0.0000       2.299927        62.5842 
 145   0.0000       2.309418        62.8424 
 146   0.0000       2.316352        63.0311 
 147   0.0000       2.366772        64.4031 
 148   0.0000       2.374934        64.6253 
 149   0.0000       2.412902        65.6584 
 150   0.0000       2.430428        66.1353 
 151   0.0000       2.447840        66.6091 
 152   0.0000       2.469351        67.1944 
 153   0.0000       2.486476        67.6604 
 154   0.0000       2.503367        68.1201 
 155   0.0000       2.530533        68.8593 
 156   0.0000       2.552754        69.4640 
 157   0.0000       2.574203        70.0476 
 158   0.0000       2.616025        71.1857 
 159   0.0000       2.621488        71.3343 
 160   0.0000       2.644347        71.9563 
 161   0.0000       2.666435        72.5574 
 162   0.0000       2.672672        72.7271 
 163   0.0000       2.691154        73.2300 
 164   0.0000       2.700754        73.4912 
 165   0.0000       2.709009        73.7159 
 166   0.0000       2.741674        74.6047 
 167   0.0000       2.749705        74.8233 
 168   0.0000       2.755024        74.9680 
 169   0.0000       2.766227        75.2729 
 170   0.0000       2.804125        76.3041 
 171   0.0000       2.827277        76.9341 
 172   0.0000       2.863258        77.9132 
 173   0.0000       2.884160        78.4820 
 174   0.0000       2.903934        79.0201 
 175   0.0000       2.922765        79.5325 
 176   0.0000       2.957158        80.4684 
 177   0.0000       2.963646        80.6449 
 178   0.0000       3.004715        81.7624 
 179   0.0000       3.015801        82.0641 
 180   0.0000       3.029465        82.4359 
 181   0.0000       3.072618        83.6102 
 182   0.0000       3.075319        83.6837 
 183   0.0000       3.119361        84.8821 
 184   0.0000       3.132677        85.2445 
 185   0.0000       3.157792        85.9279 
 186   0.0000       3.165646        86.1416 
 187   0.0000       3.187203        86.7282 
 188   0.0000       3.232253        87.9541 
 189   0.0000       3.243848        88.2696 
 190   0.0000       3.276219        89.1505 
 191   0.0000       3.302822        89.8743 
 192   0.0000       3.318414        90.2986 
 193   0.0000       3.354438        91.2789 
 194   0.0000       3.364754        91.5596 
 195   0.0000       3.384062        92.0850 
 196   0.0000       3.416797        92.9758 
 197   0.0000       3.449693        93.8709 
 198   0.0000       3.464043        94.2614 
 199   0.0000       3.491818        95.0172 
 200   0.0000       3.533322        96.1466 
 201   0.0000       3.558201        96.8236 
 202   0.0000       3.600551        97.9760 
 203   0.0000       3.624278        98.6216 
 204   0.0000       3.662965        99.6743 
 205   0.0000       3.669574        99.8542 
 206   0.0000       3.704038       100.7920 
 207   0.0000       3.755050       102.1801 
 208   0.0000       3.765815       102.4730 
 209   0.0000       3.781638       102.9036 
 210   0.0000       3.815070       103.8133 
 211   0.0000       3.853930       104.8708 
 212   0.0000       3.898529       106.0844 
 213   0.0000       3.922221       106.7291 
 214   0.0000       3.956660       107.6662 
 215   0.0000       3.995066       108.7113 
 216   0.0000       4.011885       109.1689 
 217   0.0000       4.044339       110.0521 
 218   0.0000       4.085738       111.1786 
 219   0.0000       4.105245       111.7094 
 220   0.0000       4.130786       112.4044 
 221   0.0000       4.185511       113.8935 
 222   0.0000       4.208132       114.5091 
 223   0.0000       4.216201       114.7287 
 224   0.0000       4.281524       116.5062 
 225   0.0000       4.300560       117.0242 
 226   0.0000       4.323557       117.6500 
 227   0.0000       4.347976       118.3144 
 228   0.0000       4.397460       119.6610 
 229   0.0000       4.519843       122.9912 
 230   0.0000       4.563756       124.1861 
 231   0.0000       4.602531       125.2412 
 232   0.0000       4.671105       127.1072 
 233   0.0000       4.705006       128.0297 
 234   0.0000       4.769823       129.7935 
 235   0.0000       4.861044       132.2757 
 236   0.0000       4.895000       133.1997 
 237   0.0000       4.943891       134.5301 
 238   0.0000       4.982788       135.5886 
 239   0.0000       5.011367       136.3662 
 240   0.0000       5.080167       138.2384 
 241   0.0000       5.136697       139.7766 
 242   0.0000       5.183499       141.0502 
 243   0.0000       5.189833       141.2225 
 244   0.0000       5.387555       146.6028 
 245   0.0000       5.420069       147.4876 
 246   0.0000       5.446633       148.2104 
 247   0.0000       5.454913       148.4357 
 248   0.0000       5.545775       150.9082 
 249   0.0000       5.711395       155.4149 
 250   0.0000       5.787535       157.4868 
 251   0.0000       5.857430       159.3888 
 252   0.0000       6.073559       165.2700 
 253   0.0000       6.235480       169.6760 
 254   0.0000       6.380210       173.6143 
 255   0.0000       6.444809       175.3722 
 256   0.0000       6.602070       179.6515 
 257   0.0000       6.631488       180.4520 
 258   0.0000       6.746819       183.5903 
 259   0.0000       6.853999       186.5068 
 260   0.0000       6.887238       187.4113 
 261   0.0000       7.037865       191.5100 
 262   0.0000       7.132817       194.0938 
 263   0.0000       7.600225       206.8126 
 264   0.0000      22.332836       607.7074 
 265   0.0000      22.500606       612.2726 
 266   0.0000      22.565258       614.0319 
 267   0.0000      22.605036       615.1143 
 268   0.0000      22.721486       618.2831 
 269   0.0000      43.475615      1183.0316 
 270   0.0000      44.165919      1201.8157 

                    ********************************
                    * MULLIKEN POPULATION ANALYSIS *
                    ********************************

--------------------------------------------
MULLIKEN ATOMIC CHARGES AND SPIN POPULATIONS
--------------------------------------------
   0 O :   -0.441913    0.485392
   1 O :   -0.235630   -0.088070
   2 C :    0.080736    0.013195
   3 C :   -0.146984   -0.044100
   4 C :   -0.098842    0.606588
   5 C :   -0.183192   -0.035881
   6 C :   -0.199589    0.010919
   7 H :    0.306003   -0.010255
   8 H :    0.111132   -0.004899
   9 H :    0.113062    0.002790
  10 H :    0.104103    0.052391
  11 H :    0.140121   -0.026491
  12 H :    0.115663    0.011761
  13 H :    0.107831    0.029315
  14 H :    0.128631   -0.002034
  15 H :    0.098867   -0.000622
Sum of atomic charges         :    0.0000000
Sum of atomic spin populations:    1.0000000

-----------------------------------------------------
MULLIKEN REDUCED ORBITAL CHARGES AND SPIN POPULATIONS
-----------------------------------------------------
CHARGE
  0 O s       :     3.891338  s :     3.891338
      pz      :     1.405915  p :     4.526141
      px      :     1.196067
      py      :     1.924160
      dz2     :     0.011578  d :     0.023326
      dxz     :     0.002613
      dyz     :     0.001835
      dx2y2   :     0.004466
      dxy     :     0.002833
      f0      :     0.000579  f :     0.001108
      f+1     :     0.000071
      f-1     :     0.000121
      f+2     :     0.000048
      f-2     :     0.000018
      f+3     :     0.000135
      f-3     :     0.000136
  1 O s       :     3.867420  s :     3.867420
      pz      :     1.363580  p :     4.328958
      px      :     1.124704
      py      :     1.840675
      dz2     :     0.013990  d :     0.037723
      dxz     :     0.006686
      dyz     :     0.004562
      dx2y2   :     0.008015
      dxy     :     0.004471
      f0      :     0.000438  f :     0.001528
      f+1     :     0.000305
      f-1     :     0.000237
      f+2     :     0.000114
      f-2     :     0.000058
      f+3     :     0.000209
      f-3     :     0.000167
  2 C s       :     3.167781  s :     3.167781
      pz      :     0.702237  p :     2.558530
      px      :     0.908999
      py      :     0.947294
      dz2     :     0.032021  d :     0.179109
      dxz     :     0.043226
      dyz     :     0.043832
      dx2y2   :     0.029652
      dxy     :     0.030377
      f0      :     0.003114  f :     0.013843
      f+1     :     0.002157
      f-1     :     0.003094
      f+2     :     0.001176
      f-2     :     0.001283
      f+3     :     0.001760
      f-3     :     0.001260
  3 C s       :     3.158496  s :     3.158496
      pz      :     0.958362  p :     2.902578
      px      :     0.952345
      py      :     0.991871
      dz2     :     0.014224  d :     0.079852
      dxz     :     0.026052
      dyz     :     0.009840
      dx2y2   :     0.017852
      dxy     :     0.011884
      f0      :     0.000704  f :     0.006058
      f+1     :     0.000925
      f-1     :     0.000674
      f+2     :     0.001149
      f-2     :     0.000825
      f+3     :     0.000931
      f-3     :     0.000849
  4 C s       :     3.278186  s :     3.278186
      pz      :     0.946306  p :     2.705903
      px      :     0.803202
      py      :     0.956394
      dz2     :     0.019030  d :     0.106643
      dxz     :     0.020053
      dyz     :     0.023514
      dx2y2   :     0.024711
      dxy     :     0.019334
      f0      :     0.000917  f :     0.008111
      f+1     :     0.001294
      f-1     :     0.001242
      f+2     :     0.001383
      f-2     :     0.001181
      f+3     :     0.001280
      f-3     :     0.000813
  5 C s       :     3.161247  s :     3.161247
      pz      :     0.999455  p :     2.930964
      px      :     1.000694
      py      :     0.930814
      dz2     :     0.016304  d :     0.085362
      dxz     :     0.011332
      dyz     :     0.021950
      dx2y2   :     0.015554
      dxy     :     0.020223
      f0      :     0.000585  f :     0.005619
      f+1     :     0.000603
      f-1     :     0.000729
      f+2     :     0.001235
      f-2     :     0.001016
      f+3     :     0.000628
      f-3     :     0.000825
  6 C s       :     3.172424  s :     3.172424
      pz      :     0.984260  p :     2.940324
      px      :     0.991909
      py      :     0.964154
      dz2     :     0.019520  d :     0.081013
      dxz     :     0.011448
      dyz     :     0.013210
      dx2y2   :     0.014185
      dxy     :     0.022649
      f0      :     0.000753  f :     0.005829
      f+1     :     0.001204
      f-1     :     0.000567
      f+2     :     0.000675
      f-2     :     0.000749
      f+3     :     0.000803
      f-3     :     0.001078
  7 H s       :     0.647620  s :     0.647620
      pz      :     0.019229  p :     0.046377
      px      :     0.010090
      py      :     0.017058
  8 H s       :     0.867950  s :     0.867950
      pz      :     0.005881  p :     0.020917
      px      :     0.009654
      py      :     0.005382
  9 H s       :     0.865220  s :     0.865220
      pz      :     0.004662  p :     0.021718
      px      :     0.004362
      py      :     0.012694
 10 H s       :     0.874792  s :     0.874792
      pz      :     0.009445  p :     0.021105
      px      :     0.007683
      py      :     0.003976
 11 H s       :     0.837461  s :     0.837461
      pz      :     0.011024  p :     0.022419
      px      :     0.006567
      py      :     0.004828
 12 H s       :     0.862831  s :     0.862831
      pz      :     0.009054  p :     0.021506
      px      :     0.004772
      py      :     0.007680
 13 H s       :     0.870819  s :     0.870819
      pz      :     0.005412  p :     0.021350
      px      :     0.010412
      py      :     0.005526
 14 H s       :     0.849641  s :     0.849641
      pz      :     0.004344  p :     0.021728
      px      :     0.010036
      py      :     0.007348
 15 H s       :     0.879863  s :     0.879863
      pz      :     0.011577  p :     0.021270
      px      :     0.004907
      py      :     0.004786

SPIN
  0 O s       :     0.000036  s :     0.000036
      pz      :     0.013198  p :     0.485770
      px      :     0.476428
      py      :    -0.003856
      dz2     :    -0.000076  d :    -0.000390
      dxz     :     0.000018
      dyz     :     0.000029
      dx2y2   :    -0.000207
      dxy     :    -0.000154
      f0      :    -0.000101  f :    -0.000023
      f+1     :     0.000021
      f-1     :    -0.000011
      f+2     :     0.000016
      f-2     :    -0.000002
      f+3     :     0.000029
      f-3     :     0.000026
  1 O s       :     0.009702  s :     0.009702
      pz      :     0.000257  p :    -0.101938
      px      :    -0.163718
      py      :     0.061523
      dz2     :     0.001073  d :     0.004165
      dxz     :     0.000023
      dyz     :    -0.000039
      dx2y2   :     0.003000
      dxy     :     0.000108
      f0      :     0.000021  f :     0.000001
      f+1     :     0.000021
      f-1     :     0.000003
      f+2     :    -0.000011
      f-2     :     0.000001
      f+3     :    -0.000024
      f-3     :    -0.000011
  2 C s       :    -0.008334  s :    -0.008334
      pz      :     0.002778  p :     0.021114
      px      :     0.012326
      py      :     0.006009
      dz2     :    -0.000133  d :     0.000446
      dxz     :    -0.000129
      dyz     :     0.000441
      dx2y2   :     0.000221
      dxy     :     0.000046
      f0      :    -0.000171  f :    -0.000032
      f+1     :     0.000099
      f-1     :     0.000113
      f+2     :    -0.000070
      f-2     :    -0.000000
      f+3     :    -0.000011
      f-3     :     0.000009
  3 C s       :    -0.009702  s :    -0.009702
      pz      :    -0.023964  p :    -0.048233
      px      :    -0.015690
      py      :    -0.008579
      dz2     :     0.004328  d :     0.013160
      dxz     :     0.008914
      dyz     :    -0.000479
      dx2y2   :    -0.000158
      dxy     :     0.000555
      f0      :     0.000091  f :     0.000675
      f+1     :     0.000081
      f-1     :     0.000056
      f+2     :     0.000037
      f-2     :     0.000301
      f+3     :     0.000036
      f-3     :     0.000073
  4 C s       :     0.038380  s :     0.038380
      pz      :     0.094813  p :     0.566098
      px      :     0.443491
      py      :     0.027793
      dz2     :     0.000169  d :     0.002935
      dxz     :     0.000278
      dyz     :     0.000973
      dx2y2   :    -0.000585
      dxy     :     0.002100
      f0      :     0.000004  f :    -0.000825
      f+1     :    -0.000369
      f-1     :    -0.000030
      f+2     :    -0.000103
      f-2     :    -0.000099
      f+3     :     0.000001
      f-3     :    -0.000229
  5 C s       :    -0.006942  s :    -0.006942
      pz      :    -0.006700  p :    -0.040483
      px      :    -0.016210
      py      :    -0.017573
      dz2     :    -0.000203  d :     0.010872
      dxz     :     0.001184
      dyz     :     0.002402
      dx2y2   :     0.000092
      dxy     :     0.007397
      f0      :     0.000006  f :     0.000673
      f+1     :     0.000026
      f-1     :     0.000093
      f+2     :     0.000073
      f-2     :     0.000076
      f+3     :     0.000350
      f-3     :     0.000048
  6 C s       :     0.002689  s :     0.002689
      pz      :     0.002524  p :     0.008202
      px      :     0.003943
      py      :     0.001735
      dz2     :    -0.000227  d :     0.000047
      dxz     :    -0.000037
      dyz     :     0.000159
      dx2y2   :     0.000167
      dxy     :    -0.000015
      f0      :    -0.000002  f :    -0.000019
      f+1     :    -0.000006
      f-1     :     0.000008
      f+2     :     0.000001
      f-2     :    -0.000011
      f+3     :    -0.000001
      f-3     :    -0.000007
  7 H s       :    -0.012901  s :    -0.012901
      pz      :     0.000092  p :     0.002646
      px      :     0.002962
      py      :    -0.000409
  8 H s       :    -0.005047  s :    -0.005047
      pz      :     0.000040  p :     0.000148
      px      :     0.000022
      py      :     0.000085
  9 H s       :     0.002921  s :     0.002921
      pz      :    -0.000092  p :    -0.000130
      px      :    -0.000037
      py      :    -0.000001
 10 H s       :     0.052548  s :     0.052548
      pz      :    -0.000232  p :    -0.000158
      px      :    -0.000040
      py      :     0.000114
 11 H s       :    -0.029991  s :    -0.029991
      pz      :     0.000842  p :     0.003500
      px      :     0.002578
      py      :     0.000080
 12 H s       :     0.011867  s :     0.011867
      pz      :    -0.000042  p :    -0.000105
      px      :    -0.000012
      py      :    -0.000051
 13 H s       :     0.029333  s :     0.029333
      pz      :    -0.000012  p :    -0.000018
      px      :     0.000034
      py      :    -0.000040
 14 H s       :    -0.002091  s :    -0.002091
      pz      :     0.000014  p :     0.000057
      px      :     0.000016
      py      :     0.000028
 15 H s       :    -0.000653  s :    -0.000653
      pz      :     0.000028  p :     0.000031
      px      :     0.000004
      py      :    -0.000001


                     *******************************
                     * LOEWDIN POPULATION ANALYSIS *
                     *******************************

-------------------------------------------
LOEWDIN ATOMIC CHARGES AND SPIN POPULATIONS
-------------------------------------------
   0 O :   -0.235446    0.443892
   1 O :    0.122682   -0.026831
   2 C :   -0.346537    0.014589
   3 C :   -0.237532    0.039061
   4 C :   -0.083384    0.438830
   5 C :   -0.251608    0.028412
   6 C :   -0.229979    0.003851
   7 H :    0.137593    0.004308
   8 H :    0.137162   -0.001520
   9 H :    0.145487    0.002012
  10 H :    0.141592    0.029069
  11 H :    0.130886    0.001029
  12 H :    0.144975    0.006150
  13 H :    0.144473    0.017941
  14 H :    0.144602   -0.000599
  15 H :    0.135034   -0.000195

----------------------------------------------------
LOEWDIN REDUCED ORBITAL CHARGES AND SPIN POPULATIONS
----------------------------------------------------
CHARGE
  0 O s       :     3.622657  s :     3.622657
      pz      :     1.470628  p :     4.562435
      px      :     1.202702
      py      :     1.889105
      dz2     :     0.021142  d :     0.047702
      dxz     :     0.004849
      dyz     :     0.001302
      dx2y2   :     0.013229
      dxy     :     0.007180
      f0      :     0.001209  f :     0.002653
      f+1     :     0.000385
      f-1     :     0.000118
      f+2     :     0.000107
      f-2     :     0.000035
      f+3     :     0.000415
      f-3     :     0.000385
  1 O s       :     3.483572  s :     3.483572
      pz      :     1.435313  p :     4.291853
      px      :     1.103509
      py      :     1.753030
      dz2     :     0.029950  d :     0.096849
      dxz     :     0.017841
      dyz     :     0.013286
      dx2y2   :     0.025745
      dxy     :     0.010027
      f0      :     0.001231  f :     0.005045
      f+1     :     0.001439
      f-1     :     0.000893
      f+2     :     0.000304
      f-2     :     0.000205
      f+3     :     0.000441
      f-3     :     0.000532
  2 C s       :     2.759170  s :     2.759170
      pz      :     0.826173  p :     2.819681
      px      :     0.981752
      py      :     1.011756
      dz2     :     0.151792  d :     0.674409
      dxz     :     0.158119
      dyz     :     0.137424
      dx2y2   :     0.109633
      dxy     :     0.117442
      f0      :     0.025043  f :     0.093277
      f+1     :     0.013869
      f-1     :     0.020341
      f+2     :     0.006858
      f-2     :     0.007708
      f+3     :     0.011758
      f-3     :     0.007701
  3 C s       :     2.777459  s :     2.777459
      pz      :     1.013803  p :     3.020319
      px      :     1.002525
      py      :     1.003991
      dz2     :     0.074854  d :     0.396922
      dxz     :     0.105300
      dyz     :     0.058317
      dx2y2   :     0.100994
      dxy     :     0.057456
      f0      :     0.005825  f :     0.042833
      f+1     :     0.005023
      f-1     :     0.006428
      f+2     :     0.005968
      f-2     :     0.006106
      f+3     :     0.007085
      f-3     :     0.006399
  4 C s       :     2.822636  s :     2.822636
      pz      :     0.992349  p :     2.785448
      px      :     0.756773
      py      :     1.036326
      dz2     :     0.077280  d :     0.430015
      dxz     :     0.085352
      dyz     :     0.105465
      dx2y2   :     0.095474
      dxy     :     0.066444
      f0      :     0.005864  f :     0.045285
      f+1     :     0.005265
      f-1     :     0.007731
      f+2     :     0.007665
      f-2     :     0.006430
      f+3     :     0.007899
      f-3     :     0.004431
  5 C s       :     2.776367  s :     2.776367
      pz      :     1.023539  p :     3.041978
      px      :     1.010439
      py      :     1.008000
      dz2     :     0.061763  d :     0.392269
      dxz     :     0.064895
      dyz     :     0.106550
      dx2y2   :     0.082822
      dxy     :     0.076239
      f0      :     0.005726  f :     0.040994
      f+1     :     0.004003
      f-1     :     0.006709
      f+2     :     0.005680
      f-2     :     0.005999
      f+3     :     0.005672
      f-3     :     0.007206
  6 C s       :     2.784040  s :     2.784040
      pz      :     1.007940  p :     3.035854
      px      :     1.017287
      py      :     1.010627
      dz2     :     0.095234  d :     0.370563
      dxz     :     0.059662
      dyz     :     0.052275
      dx2y2   :     0.064255
      dxy     :     0.099137
      f0      :     0.003844  f :     0.039522
      f+1     :     0.005965
      f-1     :     0.004583
      f+2     :     0.006608
      f-2     :     0.005563
      f+3     :     0.005459
      f-3     :     0.007498
  7 H s       :     0.699138  s :     0.699138
      pz      :     0.087677  p :     0.163269
      px      :     0.028206
      py      :     0.047387
  8 H s       :     0.804738  s :     0.804738
      pz      :     0.017230  p :     0.058099
      px      :     0.025665
      py      :     0.015204
  9 H s       :     0.795085  s :     0.795085
      pz      :     0.014177  p :     0.059428
      px      :     0.012821
      py      :     0.032430
 10 H s       :     0.799830  s :     0.799830
      pz      :     0.025632  p :     0.058578
      px      :     0.021131
      py      :     0.011815
 11 H s       :     0.805495  s :     0.805495
      pz      :     0.030726  p :     0.063619
      px      :     0.019149
      py      :     0.013743
 12 H s       :     0.796075  s :     0.796075
      pz      :     0.025407  p :     0.058950
      px      :     0.014157
      py      :     0.019386
 13 H s       :     0.796772  s :     0.796772
      pz      :     0.016087  p :     0.058755
      px      :     0.028037
      py      :     0.014632
 14 H s       :     0.794713  s :     0.794713
      pz      :     0.013156  p :     0.060685
      px      :     0.027304
      py      :     0.020225
 15 H s       :     0.805831  s :     0.805831
      pz      :     0.030578  p :     0.059135
      px      :     0.015142
      py      :     0.013415

SPIN
  0 O s       :     0.007885  s :     0.007885
      pz      :     0.007184  p :     0.434250
      px      :     0.431001
      py      :    -0.003935
      dz2     :     0.000447  d :     0.001783
      dxz     :     0.000050
      dyz     :     0.000008
      dx2y2   :     0.001795
      dxy     :    -0.000517
      f0      :    -0.000119  f :    -0.000026
      f+1     :     0.000018
      f-1     :    -0.000004
      f+2     :     0.000013
      f-2     :    -0.000000
      f+3     :     0.000071
      f-3     :    -0.000003
  1 O s       :     0.034465  s :     0.034465
      pz      :     0.002523  p :    -0.078042
      px      :    -0.138041
      py      :     0.057476
      dz2     :     0.003520  d :     0.016396
      dxz     :     0.000427
      dyz     :     0.000250
      dx2y2   :     0.011186
      dxy     :     0.001012
      f0      :     0.000028  f :     0.000350
      f+1     :     0.000102
      f-1     :     0.000001
      f+2     :    -0.000003
      f-2     :    -0.000000
      f+3     :     0.000028
      f-3     :     0.000194
  2 C s       :     0.001613  s :     0.001613
      pz      :     0.001083  p :     0.013628
      px      :     0.007823
      py      :     0.004723
      dz2     :    -0.001971  d :    -0.000207
      dxz     :     0.001403
      dyz     :     0.000864
      dx2y2   :    -0.000293
      dxy     :    -0.000210
      f0      :    -0.001141  f :    -0.000445
      f+1     :     0.000578
      f-1     :     0.000631
      f+2     :    -0.000420
      f-2     :    -0.000012
      f+3     :    -0.000056
      f-3     :    -0.000024
  3 C s       :    -0.001659  s :    -0.001659
      pz      :    -0.008648  p :    -0.016470
      px      :    -0.003951
      py      :    -0.003872
      dz2     :     0.017060  d :     0.052237
      dxz     :     0.026825
      dyz     :     0.003164
      dx2y2   :     0.000460
      dxy     :     0.004728
      f0      :     0.000552  f :     0.004954
      f+1     :     0.000309
      f-1     :     0.000947
      f+2     :     0.000572
      f-2     :     0.001754
      f+3     :     0.000363
      f-3     :     0.000457
  4 C s       :     0.017539  s :     0.017539
      pz      :     0.074930  p :     0.423394
      px      :     0.336919
      py      :     0.011544
      dz2     :    -0.001514  d :    -0.000781
      dxz     :     0.003333
      dyz     :    -0.000490
      dx2y2   :    -0.003179
      dxy     :     0.001069
      f0      :    -0.000034  f :    -0.001323
      f+1     :    -0.000555
      f-1     :    -0.000170
      f+2     :    -0.000157
      f-2     :    -0.000086
      f+3     :    -0.000028
      f-3     :    -0.000292
  5 C s       :    -0.002008  s :    -0.002008
      pz      :    -0.001805  p :    -0.014469
      px      :    -0.004285
      py      :    -0.008379
      dz2     :     0.000644  d :     0.040394
      dxz     :     0.004624
      dyz     :     0.009556
      dx2y2   :     0.001212
      dxy     :     0.024358
      f0      :     0.000124  f :     0.004495
      f+1     :     0.000172
      f-1     :     0.000523
      f+2     :     0.000492
      f-2     :     0.000451
      f+3     :     0.002324
      f-3     :     0.000407
  6 C s       :     0.000261  s :     0.000261
      pz      :     0.001331  p :     0.003989
      px      :     0.002092
      py      :     0.000567
      dz2     :    -0.000623  d :    -0.000326
      dxz     :    -0.000008
      dyz     :    -0.000157
      dx2y2   :     0.000681
      dxy     :    -0.000219
      f0      :    -0.000010  f :    -0.000073
      f+1     :    -0.000029
      f-1     :     0.000020
      f+2     :    -0.000018
      f-2     :    -0.000054
      f+3     :     0.000025
      f-3     :    -0.000007
  7 H s       :    -0.006653  s :    -0.006653
      pz      :     0.001379  p :     0.010961
      px      :     0.010166
      py      :    -0.000584
  8 H s       :    -0.002074  s :    -0.002074
      pz      :     0.000046  p :     0.000554
      px      :     0.000295
      py      :     0.000213
  9 H s       :     0.002525  s :     0.002525
      pz      :    -0.000274  p :    -0.000512
      px      :    -0.000088
      py      :    -0.000151
 10 H s       :     0.029942  s :     0.029942
      pz      :    -0.000628  p :    -0.000873
      px      :    -0.000302
      py      :     0.000057
 11 H s       :    -0.010925  s :    -0.010925
      pz      :     0.002924  p :     0.011955
      px      :     0.008708
      py      :     0.000323
 12 H s       :     0.006718  s :     0.006718
      pz      :    -0.000184  p :    -0.000568
      px      :    -0.000053
      py      :    -0.000331
 13 H s       :     0.018497  s :     0.018497
      pz      :    -0.000055  p :    -0.000556
      px      :    -0.000306
      py      :    -0.000195
 14 H s       :    -0.000811  s :    -0.000811
      pz      :     0.000039  p :     0.000212
      px      :     0.000078
      py      :     0.000095
 15 H s       :    -0.000258  s :    -0.000258
      pz      :     0.000066  p :     0.000063
      px      :     0.000008
      py      :    -0.000011


                      *****************************
                      * MAYER POPULATION ANALYSIS *
                      *****************************

  NA   - Mulliken gross atomic population
  ZA   - Total nuclear charge
  QA   - Mulliken gross atomic charge
  VA   - Mayer's total valence
  BVA  - Mayer's bonded valence
  FA   - Mayer's free valence

  ATOM       NA         ZA         QA         VA         BVA        FA
  0 O      8.4419     8.0000    -0.4419     1.8791     1.6388     0.2403
  1 O      8.2356     8.0000    -0.2356     2.0421     1.9850     0.0571
  2 C      5.9193     6.0000     0.0807     3.9661     3.9657     0.0004
  3 C      6.1470     6.0000    -0.1470     3.9549     3.9529     0.0020
  4 C      6.0988     6.0000    -0.0988     3.8992     3.6168     0.2824
  5 C      6.1832     6.0000    -0.1832     4.0465     4.0454     0.0012
  6 C      6.1996     6.0000    -0.1996     3.9828     3.9828     0.0000
  7 H      0.6940     1.0000     0.3060     0.9253     0.9250     0.0003
  8 H      0.8889     1.0000     0.1111     0.9905     0.9905     0.0000
  9 H      0.8869     1.0000     0.1131     0.9869     0.9868     0.0000
 10 H      0.8959     1.0000     0.1041     0.9713     0.9684     0.0028
 11 H      0.8599     1.0000     0.1401     0.9680     0.9671     0.0009
 12 H      0.8843     1.0000     0.1157     0.9744     0.9742     0.0001
 13 H      0.8922     1.0000     0.1078     0.9702     0.9693     0.0009
 14 H      0.8714     1.0000     0.1286     0.9930     0.9930     0.0000
 15 H      0.9011     1.0000     0.0989     0.9751     0.9751     0.0000

  Mayer bond orders larger than 0.100000
B(  0-O ,  1-O ) :   0.5283 B(  0-O ,  4-C ) :   0.1171 B(  0-O ,  7-H ) :   0.9093 
B(  1-O ,  2-C ) :   0.9657 B(  1-O ,  4-C ) :   0.4088 B(  2-C ,  3-C ) :   0.9872 
B(  2-C ,  6-C ) :   1.0176 B(  2-C ,  8-H ) :   0.9477 B(  3-C ,  4-C ) :   1.0237 
B(  3-C ,  9-H ) :   0.9476 B(  3-C , 10-H ) :   0.9328 B(  4-C ,  5-C ) :   1.0493 
B(  4-C , 11-H ) :   0.9448 B(  5-C ,  6-C ) :   1.0592 B(  5-C , 12-H ) :   0.9424 
B(  5-C , 13-H ) :   0.9354 B(  6-C , 14-H ) :   0.9492 B(  6-C , 15-H ) :   0.9451 



------------------
HIRSHFELD ANALYSIS
------------------

Total integrated alpha density =     27.999986992
Total integrated beta density  =     26.999991405

  ATOM     CHARGE      SPIN    
   0 O   -0.249175    0.432909
   1 O   -0.118968   -0.015783
   2 C    0.051827    0.019567
   3 C   -0.057441    0.024284
   4 C    0.048565    0.404005
   5 C   -0.049223    0.019377
   6 C   -0.052225    0.006031
   7 H    0.134428    0.012354
   8 H    0.038839   -0.000520
   9 H    0.038792    0.004012
  10 H    0.034851    0.035257
  11 H    0.047766    0.026394
  12 H    0.037087    0.008743
  13 H    0.032883    0.023322
  14 H    0.034154   -0.000134
  15 H    0.027861    0.000178

  TOTAL   0.000022    0.999996

-------
TIMINGS
-------

Total SCF time: 0 days 0 hours 0 min 25 sec 

Total time                  ....      25.070 sec
Sum of individual times     ....      24.762 sec  ( 98.8%)

Fock matrix formation       ....      22.898 sec  ( 91.3%)
  Split-RI-J                ....       1.685 sec  (  7.4% of F)
  Chain of spheres X        ....      16.295 sec  ( 71.2% of F)
  XC integration            ....       4.749 sec  ( 20.7% of F)
    Basis function eval.    ....       0.828 sec  ( 17.4% of XC)
    Density eval.           ....       1.422 sec  ( 29.9% of XC)
    XC-Functional eval.     ....       0.178 sec  (  3.8% of XC)
    XC-Potential eval.      ....       2.128 sec  ( 44.8% of XC)
Diagonalization             ....       0.453 sec  (  1.8%)
Density matrix formation    ....       0.023 sec  (  0.1%)
Population analysis         ....       0.438 sec  (  1.7%)
Initial guess               ....       0.109 sec  (  0.4%)
Orbital Transformation      ....       0.000 sec  (  0.0%)
Orbital Orthonormalization  ....       0.000 sec  (  0.0%)
DIIS solution               ....       0.254 sec  (  1.0%)
Grid generation             ....       0.588 sec  (  2.3%)

Maximum memory used throughout the entire SCF-calculation: 78.5 MB


-------------------------------------------------------------------------------
                          DFT DISPERSION CORRECTION                            
                                                                               
                              DFTD3 V3.1  Rev 1                                
                          USING Becke-Johnson damping                          
-------------------------------------------------------------------------------
The PBE0 functional is recognized
Active option DFTDOPT                   ...         4   

molecular C6(AA) [au] = 1929.255644 


            DFT-D V3
 parameters
 s6 scaling factor         :     1.0000 
 a1 scaling factor         :     0.4145 
 s8 scaling factor         :     1.2177 
 a2 scaling factor         :     4.8593 
 ad hoc parameters k1-k3   :    16.0000     1.3333    -4.0000 

 Edisp/kcal,au: -7.200820049512  -0.011475235959 
 E6   /kcal   :  -4.637341751 
 E8   /kcal   :  -2.563478299 
 % E8         :  35.599810595 

-------------------------   ----------------
Dispersion correction           -0.011475236
-------------------------   ----------------


-------------------------   --------------------
FINAL SINGLE POINT ENERGY      -345.953139643758
-------------------------   --------------------


                            ***************************************
                            *     ORCA property calculations      *
                            ***************************************

                                    ---------------------
                                    Active property flags
                                    ---------------------
   (+) Dipole Moment


------------------------------------------------------------------------------
                       ORCA ELECTRIC PROPERTIES CALCULATION
------------------------------------------------------------------------------

Dipole Moment Calculation                       ... on
Quadrupole Moment Calculation                   ... off
Polarizability Calculation                      ... off
GBWName                                         ... TS_vdwLSy_ll_ad_1-4_0-1_sp_orca.gbw
Electron density                                ... TS_vdwLSy_ll_ad_1-4_0-1_sp_orca.scfp
The origin for moment calculation is the CENTER OF MASS  = ( 0.544021, -0.207865  0.273526)

-------------
DIPOLE MOMENT
-------------
                                X             Y             Z
Electronic contribution:      2.66162      -1.58315       1.91705
Nuclear contribution   :     -3.69463       1.62287      -1.91795
                        -----------------------------------------
Total Dipole Moment    :     -1.03301       0.03973      -0.00091
                        -----------------------------------------
Magnitude (a.u.)       :      1.03377
Magnitude (Debye)      :      2.62764



--------------------
Rotational spectrum 
--------------------
 
Rotational constants in cm-1:     0.146302     0.077500     0.070076 
Rotational constants in MHz :  4386.014711  2323.399495  2100.819693 

 Dipole components along the rotational axes: 
x,y,z [a.u.] :     1.006897    -0.106388     0.208625 
x,y,z [Debye]:     2.559329    -0.270418     0.530282 

 

Timings for individual modules:

Sum of individual times         ...       25.910 sec (=   0.432 min)
GTO integral calculation        ...        0.524 sec (=   0.009 min)   2.0 %
SCF iterations                  ...       25.386 sec (=   0.423 min)  98.0 %
                             ****ORCA TERMINATED NORMALLY****
TOTAL RUN TIME: 0 days 0 hours 0 minutes 26 seconds 381 msec
