
                                 *****************
                                 * O   R   C   A *
                                 *****************

                                            #,                                       
                                            ###                                      
                                            ####                                     
                                            #####                                    
                                            ######                                   
                                           ########,                                 
                                     ,,################,,,,,                         
                               ,,#################################,,                 
                          ,,##########################################,,             
                       ,#########################################, ''#####,          
                    ,#############################################,,   '####,        
                  ,##################################################,,,,####,       
                ,###########''''           ''''###############################       
              ,#####''   ,,,,##########,,,,          '''####'''          '####       
            ,##' ,,,,###########################,,,                        '##       
           ' ,,###''''                  '''############,,,                           
         ,,##''                                '''############,,,,        ,,,,,,###''
      ,#''                                            '''#######################'''  
     '                                                          ''''####''''         
             ,#######,   #######,   ,#######,      ##                                
            ,#'     '#,  ##    ##  ,#'     '#,    #''#        ######   ,####,        
            ##       ##  ##   ,#'  ##            #'  '#       #        #'  '#        
            ##       ##  #######   ##           ,######,      #####,   #    #        
            '#,     ,#'  ##    ##  '#,     ,#' ,#      #,         ##   #,  ,#        
             '#######'   ##     ##  '#######'  #'      '#     #####' # '####'        



                  #######################################################
                  #                        -***-                        #
                  #          Department of theory and spectroscopy      #
                  #    Directorship and core code : Frank Neese         #
                  #        Max Planck Institute fuer Kohlenforschung    #
                  #                Kaiser Wilhelm Platz 1               #
                  #                 D-45470 Muelheim/Ruhr               #
                  #                      Germany                        #
                  #                                                     #
                  #                  All rights reserved                #
                  #                        -***-                        #
                  #######################################################


                         Program Version 5.0.4 -  RELEASE  -


 With contributions from (in alphabetic order):
   Daniel Aravena         : Magnetic Suceptibility
   Michael Atanasov       : Ab Initio Ligand Field Theory (pilot matlab implementation)
   Alexander A. Auer      : GIAO ZORA, VPT2 properties, NMR spectrum
   Ute Becker             : Parallelization
   Giovanni Bistoni       : ED, misc. LED, open-shell LED, HFLD
   Martin Brehm           : Molecular dynamics
   Dmytro Bykov           : SCF Hessian
   Vijay G. Chilkuri      : MRCI spin determinant printing, contributions to CSF-ICE
   Dipayan Datta          : RHF DLPNO-CCSD density
   Achintya Kumar Dutta   : EOM-CC, STEOM-CC
   Dmitry Ganyushin       : Spin-Orbit,Spin-Spin,Magnetic field MRCI
   Miquel Garcia          : C-PCM and meta-GGA Hessian, CC/C-PCM, Gaussian charge scheme
   Yang Guo               : DLPNO-NEVPT2, F12-NEVPT2, CIM, IAO-localization
   Andreas Hansen         : Spin unrestricted coupled pair/coupled cluster methods
   Benjamin Helmich-Paris : MC-RPA, TRAH-SCF, COSX integrals
   Lee Huntington         : MR-EOM, pCC
   Robert Izsak           : Overlap fitted RIJCOSX, COSX-SCS-MP3, EOM
   Marcus Kettner         : VPT2
   Christian Kollmar      : KDIIS, OOCD, Brueckner-CCSD(T), CCSD density, CASPT2, CASPT2-K
   Simone Kossmann        : Meta GGA functionals, TD-DFT gradient, OOMP2, MP2 Hessian
   Martin Krupicka        : Initial AUTO-CI
   Lucas Lang             : DCDCAS
   Marvin Lechner         : AUTO-CI (C++ implementation), FIC-MRCC
   Dagmar Lenk            : GEPOL surface, SMD
   Dimitrios Liakos       : Extrapolation schemes; Compound Job, initial MDCI parallelization
   Dimitrios Manganas     : Further ROCIS development; embedding schemes
   Dimitrios Pantazis     : SARC Basis sets
   Anastasios Papadopoulos: AUTO-CI, single reference methods and gradients
   Taras Petrenko         : DFT Hessian,TD-DFT gradient, ASA, ECA, R-Raman, ABS, FL, XAS/XES, NRVS
   Peter Pinski           : DLPNO-MP2, DLPNO-MP2 Gradient
   Christoph Reimann      : Effective Core Potentials
   Marius Retegan         : Local ZFS, SOC
   Christoph Riplinger    : Optimizer, TS searches, QM/MM, DLPNO-CCSD(T), (RO)-DLPNO pert. Triples
   Tobias Risthaus        : Range-separated hybrids, TD-DFT gradient, RPA, STAB
   Michael Roemelt        : Original ROCIS implementation
   Masaaki Saitow         : Open-shell DLPNO-CCSD energy and density
   Barbara Sandhoefer     : DKH picture change effects
   Avijit Sen             : IP-ROCIS
   Kantharuban Sivalingam : CASSCF convergence, NEVPT2, FIC-MRCI
   Bernardo de Souza      : ESD, SOC TD-DFT
   Georgi Stoychev        : AutoAux, RI-MP2 NMR, DLPNO-MP2 response
   Willem Van den Heuvel  : Paramagnetic NMR
   Boris Wezisla          : Elementary symmetry handling
   Frank Wennmohs         : Technical directorship


 We gratefully acknowledge several colleagues who have allowed us to
 interface, adapt or use parts of their codes:
   Stefan Grimme, W. Hujo, H. Kruse, P. Pracht,  : VdW corrections, initial TS optimization,
                  C. Bannwarth, S. Ehlert          DFT functionals, gCP, sTDA/sTD-DF
   Ed Valeev, F. Pavosevic, A. Kumar             : LibInt (2-el integral package), F12 methods
   Garnet Chan, S. Sharma, J. Yang, R. Olivares  : DMRG
   Ulf Ekstrom                                   : XCFun DFT Library
   Mihaly Kallay                                 : mrcc  (arbitrary order and MRCC methods)
   Jiri Pittner, Ondrej Demel                    : Mk-CCSD
   Frank Weinhold                                : gennbo (NPA and NBO analysis)
   Christopher J. Cramer and Donald G. Truhlar   : smd solvation model
   Lars Goerigk                                  : TD-DFT with DH, B97 family of functionals
   V. Asgeirsson, H. Jonsson                     : NEB implementation
   FAccTs GmbH                                   : IRC, NEB, NEB-TS, DLPNO-Multilevel, CI-OPT
                                                   MM, QMMM, 2- and 3-layer-ONIOM, Crystal-QMMM,
                                                   LR-CPCM, SF, NACMEs, symmetry and pop. for TD-DFT,
                                                   nearIR, NL-DFT gradient (VV10), updates on ESD,
                                                   ML-optimized integration grids
   S Lehtola, MJT Oliveira, MAL Marques          : LibXC Library
   Liviu Ungur et al                             : ANISO software


 Your calculation uses the libint2 library for the computation of 2-el integrals
 For citations please refer to: http://libint.valeyev.net

 Your ORCA version has been built with support for libXC version: 5.1.0
 For citations please refer to: https://tddft.org/programs/libxc/

 This ORCA versions uses:
   CBLAS   interface :  Fast vector & matrix operations
   LAPACKE interface :  Fast linear algebra routines
   SCALAPACK package :  Parallel linear algebra routines
   Shared memory     :  Shared parallel matrices
   BLAS/LAPACK       :  OpenBLAS 0.3.15  USE64BITINT DYNAMIC_ARCH NO_AFFINITY SkylakeX SINGLE_THREADED
        Core in use  :  SkylakeX
   Copyright (c) 2011-2014, The OpenBLAS Project


Your calculation utilizes the atom-pairwise dispersion correction
with the Becke-Johnson damping scheme (D3BJ)
Cite in your paper:
S.Grimme, S.Ehrlich, L.Goerigk, J Comput Chem, (2011), 32, 1456–1465 
S.Grimme, J.Antony, S.Ehrlich and H.Krieg, J.Chem.Phys., 132, (2010), 154104 
   

================================================================================

----- Orbital basis set information -----
Your calculation utilizes the basis: def2-SVP
   F. Weigend and R. Ahlrichs, Phys. Chem. Chem. Phys. 7, 3297 (2005).

----- AuxJ basis set information -----
Your calculation utilizes the auxiliary basis: def2/J
   F. Weigend, Phys. Chem. Chem. Phys. 8, 1057 (2006).

================================================================================
                                        WARNINGS
                       Please study these warnings very carefully!
================================================================================


WARNING: your system is open-shell and RHF/RKS was chosen
  ===> : WILL SWITCH to UHF/UKS


WARNING: Geometry Optimization
  ===> : Switching off AutoStart
         For restart on a previous wavefunction, please use MOREAD

INFO   : the flag for use of the SHARK integral package has been found!

================================================================================
                                       INPUT FILE
================================================================================
NAME = TS_vdwLSy_ll_ad_1-4_0-1_conf164_opt_orca.inp
|  1> ! LooseOpt PBE0 RIJCOSX D3BJ def2-SVP def2/J 
|  2> %geom Constraints
|  3> { B 0 1 1.7149509227165678 C }
|  4> { B 1 4 2.0031871742195047 C }
|  5>     end
|  6> end
|  7> %geom MaxIter 10 end
|  8> %output 
|  9> xyzfile=True 
| 10> end 
| 11> %scf 
| 12> maxiter 250 
| 13> end
| 14> %output
| 15> Print[P_Hirshfeld] = 1
| 16> end
| 17> % maxcore
| 18> 4000
| 19> %pal nprocs 8
| 20> end
| 21> *xyz 0 2
| 22> O    2.32523019  -1.25201810   0.92350366 
| 23> O    0.62953326  -1.14529272   0.72199970 
| 24> C    0.40671397  -0.79638015  -0.62488672 
| 25> C   -1.06087634  -1.23462085  -0.60642503 
| 26> C   -1.24519711  -0.44534655   0.65378162 
| 27> C   -0.78889364   0.95198825   0.39998445 
| 28> C    0.30531957   0.73407299  -0.66974206 
| 29> H    2.32258044  -1.64135728   1.79996636 
| 30> H    1.12106563  -1.26148474  -1.30245979 
| 31> H   -1.17881699  -2.30620258  -0.47338929 
| 32> H   -1.65571960  -0.88278450  -1.45369272 
| 33> H   -1.82287798  -0.75145850   1.50617517 
| 34> H   -0.40026755   1.41897577   1.30422464 
| 35> H   -1.60806437   1.57492028   0.02610331 
| 36> H    1.25196638   1.18953073  -0.39021860 
| 37> H    0.01064413   1.08450793  -1.65738469 
| 38> *
| 39> 
| 40>                          ****END OF INPUT****
================================================================================

                       *****************************
                       * Geometry Optimization Run *
                       *****************************

Geometry optimization settings:
Update method            Update   .... BFGS
Choice of coordinates    CoordSys .... Z-matrix Internals
Initial Hessian          InHess   .... Almoef's Model

Convergence Tolerances:
Energy Change            TolE     ....  3.0000e-05 Eh
Max. Gradient            TolMAXG  ....  2.0000e-03 Eh/bohr
RMS Gradient             TolRMSG  ....  5.0000e-04 Eh/bohr
Max. Displacement        TolMAXD  ....  1.0000e-02 bohr
RMS Displacement         TolRMSD  ....  7.0000e-03 bohr
Strict Convergence                ....  False
------------------------------------------------------------------------------
                        ORCA OPTIMIZATION COORDINATE SETUP
------------------------------------------------------------------------------

The optimization will be done in new redundant internal coordinates
Making redundant internal coordinates   ...  (new redundants) done
Evaluating the initial hessian          ...  (Almloef) done
Evaluating the coordinates              ...  done
Calculating the B-matrix                .... done
Calculating the G-matrix                .... done
Diagonalizing the G-matrix              .... done
Imposing constraints:
 Iter   0:  RMS(Cart)=    0.0015703005 RMS(Int)=    0.0002844215
 Iter   1:  RMS(Cart)=    0.0000740094 RMS(Int)=    0.0000680065
 Iter   2:  RMS(Cart)=    0.0000176970 RMS(Int)=    0.0000162607
 Iter   3:  RMS(Cart)=    0.0000042314 RMS(Int)=    0.0000038880
 Iter   4:  RMS(Cart)=    0.0000010117 RMS(Int)=    0.0000009296
 Iter   5:  RMS(Cart)=    0.0000002419 RMS(Int)=    0.0000002223
 Iter   6:  RMS(Cart)=    0.0000000578 RMS(Int)=    0.0000000531
CONVERGED
The first mode is                       ....   47
The number of degrees of freedom        ....   42
Storing new coordinates                 .... done

    -----------------------------------------------------------------
                    Redundant Internal Coordinates


    -----------------------------------------------------------------
         Definition                    Initial Value    Approx d2E/dq
    -----------------------------------------------------------------
      1. B(O   1,O   0)                  1.7150         0.154149 C 
      2. B(C   2,O   1)                  1.4091         0.521727   
      3. B(C   3,C   2)                  1.5319         0.371199   
      4. B(C   4,C   3)                  1.4984         0.419638   
      5. B(C   4,O   1)                  2.0032         0.059019 C 
      6. B(C   5,C   4)                  1.4917         0.430013   
      7. B(C   6,C   2)                  1.5345         0.367498   
      8. B(C   6,C   5)                  1.5457         0.352673   
      9. B(H   7,O   0)                  0.9591         0.521772   
     10. B(H   8,C   2)                  1.0889         0.361544   
     11. B(H   9,C   3)                  1.0862         0.365122   
     12. B(H  10,C   3)                  1.0934         0.355650   
     13. B(H  11,C   4)                  1.0742         0.381562   
     14. B(H  12,C   5)                  1.0894         0.360916   
     15. B(H  13,C   5)                  1.0949         0.353637   
     16. B(H  14,C   6)                  1.0871         0.364001   
     17. B(H  15,C   6)                  1.0886         0.361941   
     18. A(O   1,O   0,H   7)           97.4820         0.292591   
     19. A(O   0,O   1,C   2)          106.5434         0.325206   
     20. A(O   1,C   2,C   6)          106.5851         0.381375   
     21. A(O   1,C   2,C   3)           93.9808         0.382039   
     22. A(C   3,C   2,H   8)          120.9240         0.324192   
     23. A(C   3,C   2,C   6)          102.8362         0.361941   
     24. A(O   1,C   2,H   8)          112.6476         0.340939   
     25. A(C   6,C   2,H   8)          116.8243         0.323659   
     26. A(H   9,C   3,H  10)          110.6906         0.290904   
     27. A(C   2,C   3,H  10)          114.8209         0.323319   
     28. A(C   4,C   3,H  10)          114.5300         0.329915   
     29. A(C   2,C   3,C   4)           88.7125         0.370261   
     30. A(C   4,C   3,H   9)          113.7853         0.331352   
     31. A(C   2,C   3,H   9)          112.8121         0.324717   
     32. A(C   5,C   4,H  11)          124.5051         0.335137   
     33. A(C   3,C   4,C   5)          108.2152         0.379782   
     34. A(C   3,C   4,H  11)          125.6960         0.333780   
     35. A(C   6,C   5,H  12)          112.4817         0.321391   
     36. A(C   4,C   5,H  13)          111.2302         0.330939   
     37. A(C   6,C   5,H  13)          111.9286         0.320322   
     38. A(H  12,C   5,H  13)          107.8457         0.290117   
     39. A(C   4,C   5,H  12)          111.6835         0.332058   
     40. A(C   4,C   5,C   6)          101.6709         0.368562   
     41. A(C   2,C   6,C   5)           99.6318         0.358796   
     42. A(C   2,C   6,H  14)          110.6546         0.324019   
     43. A(C   5,C   6,H  14)          112.3043         0.321839   
     44. A(C   2,C   6,H  15)          111.4372         0.323718   
     45. A(C   5,C   6,H  15)          112.9994         0.321540   
     46. A(H  14,C   6,H  15)          109.5216         0.291566   
     47. D(C   2,O   1,O   0,H   7)   -170.1956         0.003011   
     48. D(C   3,C   2,O   1,O   0)    162.2232         0.023431   
     49. D(C   6,C   2,O   1,O   0)    -93.1160         0.023431   
     50. D(H   8,C   2,O   1,O   0)     36.2632         0.023431   
     51. D(H   9,C   3,C   2,C   6)   -174.2210         0.011011   
     52. D(C   4,C   3,C   2,C   6)    -58.8681         0.011011   
     53. D(C   4,C   3,C   2,H   8)    168.5988         0.011011   
     54. D(H  10,C   3,C   2,O   1)    165.7108         0.011011   
     55. D(H   9,C   3,C   2,O   1)    -66.2028         0.011011   
     56. D(C   4,C   3,C   2,O   1)     49.1501         0.011011   
     57. D(H  10,C   3,C   2,H   8)    -74.8405         0.011011   
     58. D(H   9,C   3,C   2,H   8)     53.2459         0.011011   
     59. D(H  10,C   3,C   2,C   6)     57.6926         0.011011   
     60. D(C   5,C   4,C   3,C   2)     54.1551         0.013933   
     61. D(C   5,C   4,C   3,H   9)    168.6052         0.013933   
     62. D(C   5,C   4,C   3,H  10)    -62.6714         0.013933   
     63. D(H  11,C   4,C   3,C   2)   -139.7350         0.013933   
     64. D(H  11,C   4,C   3,H   9)    -25.2850         0.013933   
     65. D(H  11,C   4,C   3,H  10)    103.4385         0.013933   
     66. D(C   6,C   5,C   4,H  11)    163.8254         0.014618   
     67. D(C   6,C   5,C   4,C   3)    -29.8593         0.014618   
     68. D(H  12,C   5,C   4,C   3)   -150.0134         0.014618   
     69. D(H  12,C   5,C   4,H  11)     43.6714         0.014618   
     70. D(H  13,C   5,C   4,H  11)    -76.8771         0.014618   
     71. D(H  13,C   5,C   4,C   3)     89.4381         0.014618   
     72. D(H  14,C   6,C   2,H   8)    -62.0401         0.010805   
     73. D(C   5,C   6,C   2,C   3)     44.6783         0.010805   
     74. D(C   5,C   6,C   2,H   8)    179.5765         0.010805   
     75. D(H  14,C   6,C   2,O   1)     64.8890         0.010805   
     76. D(C   5,C   6,C   2,O   1)    -53.4943         0.010805   
     77. D(H  14,C   6,C   2,C   3)    163.0617         0.010805   
     78. D(H  15,C   6,C   5,H  13)     -9.7653         0.010009   
     79. D(H  15,C   6,C   2,C   3)    -74.8200         0.010805   
     80. D(H  15,C   6,C   2,H   8)     60.0782         0.010805   
     81. D(C   2,C   6,C   5,C   4)     -9.3085         0.010009   
     82. D(C   2,C   6,C   5,H  12)    110.2818         0.010009   
     83. D(C   2,C   6,C   5,H  13)   -128.1086         0.010009   
     84. D(H  14,C   6,C   5,C   4)   -126.4588         0.010009   
     85. D(H  14,C   6,C   5,H  12)     -6.8685         0.010009   
     86. D(H  14,C   6,C   5,H  13)    114.7411         0.010009   
     87. D(H  15,C   6,C   5,C   4)    109.0348         0.010009   
     88. D(H  15,C   6,C   2,O   1)   -172.9926         0.010805   
     89. D(H  15,C   6,C   5,H  12)   -131.3749         0.010009   
    -----------------------------------------------------------------

Number of atoms                         .... 16
Number of degrees of freedom            .... 89

         *************************************************************
         *                GEOMETRY OPTIMIZATION CYCLE   1            *
         *************************************************************
---------------------------------
CARTESIAN COORDINATES (ANGSTROEM)
---------------------------------
  O      2.328860   -1.252744    0.924124
  O      0.629216   -1.145550    0.722195
  C      0.406397   -0.796504   -0.624735
  C     -1.061457   -1.234356   -0.606637
  C     -1.246235   -0.445028    0.653545
  C     -0.789476    0.952177    0.399802
  C      0.305088    0.733980   -0.669599
  H      2.326183   -1.642139    1.800562
  H      1.120819   -1.261735   -1.302148
  H     -1.179688   -2.305917   -0.473697
  H     -1.655926   -0.882296   -1.454074
  H     -1.824336   -0.750979    1.505712
  H     -0.401103    1.419180    1.304144
  H     -1.608383    1.575226    0.025538
  H      1.251753    1.189291   -0.389897
  H      0.010628    1.084444   -1.657296

----------------------------
CARTESIAN COORDINATES (A.U.)
----------------------------
  NO LB      ZA    FRAG     MASS         X           Y           Z
   0 O     8.0000    0    15.999    4.400908   -2.367342    1.746342
   1 O     8.0000    0    15.999    1.189046   -2.164776    1.364751
   2 C     6.0000    0    12.011    0.767979   -1.505175   -1.180578
   3 C     6.0000    0    12.011   -2.005863   -2.332594   -1.146378
   4 C     6.0000    0    12.011   -2.355043   -0.840982    1.235021
   5 C     6.0000    0    12.011   -1.491893    1.799354    0.755517
   6 C     6.0000    0    12.011    0.576533    1.387022   -1.265358
   7 H     1.0000    0     1.008    4.395848   -3.103194    3.402569
   8 H     1.0000    0     1.008    2.118040   -2.384334   -2.460702
   9 H     1.0000    0     1.008   -2.229288   -4.357552   -0.895157
  10 H     1.0000    0     1.008   -3.129247   -1.667297   -2.747802
  11 H     1.0000    0     1.008   -3.447495   -1.419144    2.845383
  12 H     1.0000    0     1.008   -0.757975    2.681861    2.464474
  13 H     1.0000    0     1.008   -3.039403    2.976745    0.048260
  14 H     1.0000    0     1.008    2.365470    2.247434   -0.736798
  15 H     1.0000    0     1.008    0.020085    2.049302   -3.131835

--------------------------------
INTERNAL COORDINATES (ANGSTROEM)
--------------------------------
 O      0   0   0     0.000000000000     0.00000000     0.00000000
 O      1   0   0     1.710959447516     0.00000000     0.00000000
 C      2   1   0     1.409074677184   106.54340052     0.00000000
 C      3   2   1     1.531736616765    93.96477725   162.21762869
 C      4   3   2     1.498348713617    88.69875005    49.13953313
 C      5   4   3     1.491700507315   108.22270839    54.15804133
 C      3   2   1     1.534463958395   106.58047805   266.88708690
 H      1   2   3     0.959051032401    97.48203221   189.80442562
 H      3   2   1     1.088910390699   112.66133037    36.26553064
 H      4   3   2     1.086230136348   112.81493373   293.79366031
 H      4   3   2     1.093384589093   114.82511737   165.70422042
 H      5   4   3     1.074241349781   125.69137805   220.26509102
 H      6   5   4     1.089384185160   111.68195125   209.98442820
 H      6   5   4     1.094930183042   111.23386206    89.43512138
 H      7   3   2     1.087067293455   110.66015410    64.89908638
 H      7   3   2     1.088612064376   111.43686034   187.01911655

---------------------------
INTERNAL COORDINATES (A.U.)
---------------------------
 O      0   0   0     0.000000000000     0.00000000     0.00000000
 O      1   0   0     3.233244782050     0.00000000     0.00000000
 C      2   1   0     2.662765242121   106.54340052     0.00000000
 C      3   2   1     2.894562714986    93.96477725   162.21762869
 C      4   3   2     2.831468721850    88.69875005    49.13953313
 C      5   4   3     2.818905432658   108.22270839    54.15804133
 C      3   2   1     2.899716643740   106.58047805   266.88708690
 H      1   2   3     1.812343799692    97.48203221   189.80442562
 H      3   2   1     2.057742422803   112.66133037    36.26553064
 H      4   3   2     2.052677476109   112.81493373   293.79366031
 H      4   3   2     2.066197432436   114.82511737   165.70422042
 H      5   4   3     2.030021952819   125.69137805   220.26509102
 H      6   5   4     2.058637764576   111.68195125   209.98442820
 H      6   5   4     2.069118181714   111.23386206    89.43512138
 H      7   3   2     2.054259473773   110.66015410    64.89908638
 H      7   3   2     2.057178667754   111.43686034   187.01911655

---------------------
BASIS SET INFORMATION
---------------------
There are 3 groups of distinct atoms

 Group   1 Type O   : 7s4p1d contracted to 3s2p1d pattern {511/31/1}
 Group   2 Type C   : 7s4p1d contracted to 3s2p1d pattern {511/31/1}
 Group   3 Type H   : 4s1p contracted to 2s1p pattern {31/1}

Atom   0O    basis set group =>   1
Atom   1O    basis set group =>   1
Atom   2C    basis set group =>   2
Atom   3C    basis set group =>   2
Atom   4C    basis set group =>   2
Atom   5C    basis set group =>   2
Atom   6C    basis set group =>   2
Atom   7H    basis set group =>   3
Atom   8H    basis set group =>   3
Atom   9H    basis set group =>   3
Atom  10H    basis set group =>   3
Atom  11H    basis set group =>   3
Atom  12H    basis set group =>   3
Atom  13H    basis set group =>   3
Atom  14H    basis set group =>   3
Atom  15H    basis set group =>   3
---------------------------------
AUXILIARY/J BASIS SET INFORMATION
---------------------------------
There are 3 groups of distinct atoms

 Group   1 Type O   : 12s5p4d2f1g contracted to 6s4p3d1f1g pattern {711111/2111/211/2/1}
 Group   2 Type C   : 12s5p4d2f1g contracted to 6s4p3d1f1g pattern {711111/2111/211/2/1}
 Group   3 Type H   : 5s2p1d contracted to 3s1p1d pattern {311/2/1}

Atom   0O    basis set group =>   1
Atom   1O    basis set group =>   1
Atom   2C    basis set group =>   2
Atom   3C    basis set group =>   2
Atom   4C    basis set group =>   2
Atom   5C    basis set group =>   2
Atom   6C    basis set group =>   2
Atom   7H    basis set group =>   3
Atom   8H    basis set group =>   3
Atom   9H    basis set group =>   3
Atom  10H    basis set group =>   3
Atom  11H    basis set group =>   3
Atom  12H    basis set group =>   3
Atom  13H    basis set group =>   3
Atom  14H    basis set group =>   3
Atom  15H    basis set group =>   3


           ************************************************************
           *        Program running with 8 parallel MPI-processes     *
           *              working on a common directory               *
           ************************************************************
------------------------------------------------------------------------------
                           ORCA GTO INTEGRAL CALCULATION
                           -- RI-GTO INTEGRALS CHOSEN --
------------------------------------------------------------------------------
------------------------------------------------------------------------------
                   ___                                                        
                  /   \      - P O W E R E D   B Y -                         
                 /     \                                                     
                 |  |  |   _    _      __       _____    __    __             
                 |  |  |  | |  | |    /  \     |  _  \  |  |  /  |          
                  \  \/   | |  | |   /    \    | | | |  |  | /  /          
                 / \  \   | |__| |  /  /\  \   | |_| |  |  |/  /          
                |  |  |   |  __  | /  /__\  \  |    /   |      \           
                |  |  |   | |  | | |   __   |  |    \   |  |\   \          
                \     /   | |  | | |  |  |  |  | |\  \  |  | \   \       
                 \___/    |_|  |_| |__|  |__|  |_| \__\ |__|  \__/        
                                                                              
                      - O R C A' S   B I G   F R I E N D -                    
                                      &                                       
                       - I N T E G R A L  F E E D E R -                       
                                                                              
 v1 FN, 2020, v2 2021                                                         
------------------------------------------------------------------------------


Reading SHARK input file TS_vdwLSy_ll_ad_1-4_0-1_conf164_opt_orca.SHARKINP.tmp ... ok
----------------------
SHARK INTEGRAL PACKAGE
----------------------

Number of atoms                             ...     16
Number of basis functions                   ...    143
Number of shells                            ...     69
Maximum angular momentum                    ...      2
Integral batch strategy                     ... SHARK/LIBINT Hybrid
RI-J (if used) integral strategy            ... SPLIT-RIJ (Revised 2003 algorithm where possible)
Printlevel                                  ...      1
Contraction scheme used                     ... SEGMENTED contraction
Coulomb Range Separation                    ... NOT USED
Exchange Range Separation                   ... NOT USED
Finite Nucleus Model                        ... NOT USED
Auxiliary Coulomb fitting basis             ... AVAILABLE
   # of basis functions in Aux-J            ...    442
   # of shells in Aux-J                     ...    150
   Maximum angular momentum in Aux-J        ...      4
Auxiliary J/K fitting basis                 ... NOT available
Auxiliary Correlation fitting basis         ... NOT available
Auxiliary 'external' fitting basis          ... NOT available
Integral threshold                          ...     2.500000e-11
Primitive cut-off                           ...     2.500000e-12
Primitive pair pre-selection threshold      ...     2.500000e-12

Calculating pre-screening integrals         ... done (  0.0 sec) Dimension = 69
Organizing shell pair data                  ... done (  0.0 sec)
Shell pair information
Total number of shell pairs                 ...      2415
Shell pairs after pre-screening             ...      2358
Total number of primitive shell pairs       ...      8503
Primitive shell pairs kept                  ...      6370
          la=0 lb=0:    757 shell pairs
          la=1 lb=0:    877 shell pairs
          la=1 lb=1:    271 shell pairs
          la=2 lb=0:    266 shell pairs
          la=2 lb=1:    159 shell pairs
          la=2 lb=2:     28 shell pairs

Calculating one electron integrals          ... done (  0.0 sec)
Calculating RI/J V-Matrix + Cholesky decomp.... done (  0.0 sec)
Calculating Nuclear repulsion               ... done (  0.0 sec) ENN=    325.505077136059 Eh

SHARK setup successfully completed in   0.1 seconds

Maximum memory used throughout the entire GTOINT-calculation: 11.1 MB


           ************************************************************
           *        Program running with 8 parallel MPI-processes     *
           *              working on a common directory               *
           ************************************************************
-------------------------------------------------------------------------------
                                 ORCA SCF
-------------------------------------------------------------------------------

------------
SCF SETTINGS
------------
Hamiltonian:
 Density Functional     Method          .... DFT(GTOs)
 Exchange Functional    Exchange        .... PBE
   PBE kappa parameter   XKappa         ....  0.804000
   PBE mue parameter    XMuePBE         ....  0.219520
 Correlation Functional Correlation     .... PBE
   PBE beta parameter  CBetaPBE         ....  0.066725
 LDA part of GGA corr.  LDAOpt          .... PW91-LDA
 Gradients option       PostSCFGGA      .... off
 Hybrid DFT is turned on
   Fraction HF Exchange ScalHFX         ....  0.250000
   Scaling of DF-GGA-X  ScalDFX         ....  0.750000
   Scaling of DF-GGA-C  ScalDFC         ....  1.000000
   Scaling of DF-LDA-C  ScalLDAC        ....  1.000000
   Perturbative correction              ....  0.000000
   Density functional embedding theory  .... OFF
   NL short-range parameter             ....  6.900000
 RI-approximation to the Coulomb term is turned on
   Number of AuxJ basis functions       .... 442
   RIJ-COSX (HFX calculated with COS-X)).... on


General Settings:
 Integral files         IntName         .... TS_vdwLSy_ll_ad_1-4_0-1_conf164_opt_orca
 Hartree-Fock type      HFTyp           .... UHF
 Total Charge           Charge          ....    0
 Multiplicity           Mult            ....    2
 Number of Electrons    NEL             ....   55
 Basis Dimension        Dim             ....  143
 Nuclear Repulsion      ENuc            ....    325.5050771361 Eh

Convergence Acceleration:
 DIIS                   CNVDIIS         .... on
   Start iteration      DIISMaxIt       ....    12
   Startup error        DIISStart       ....  0.200000
   # of expansion vecs  DIISMaxEq       ....     5
   Bias factor          DIISBfac        ....   1.050
   Max. coefficient     DIISMaxC        ....  10.000
 Trust-Rad. Augm. Hess. CNVTRAH         .... auto
   Auto Start mean grad. ratio tolernc. ....  1.125000
   Auto Start start iteration           ....    20
   Auto Start num. interpolation iter.  ....    10
   Max. Number of Micro iterations      ....    16
   Max. Number of Macro iterations      .... Maxiter - #DIIS iter
   Number of Davidson start vectors     ....     2
   Converg. threshold I  (grad. norm)   ....   1.000e-05
   Converg. threshold II (energy diff.) ....   1.000e-08
   Grad. Scal. Fac. for Micro threshold ....   0.100
   Minimum threshold for Micro iter.    ....   0.010
   NR start threshold (gradient norm)   ....   0.001
   Initial trust radius                 ....   0.400
   Minimum AH scaling param. (alpha)    ....   1.000
   Maximum AH scaling param. (alpha)    .... 1000.000
   Orbital update algorithm             .... Taylor
   White noise on init. David. guess    .... on
   Maximum white noise                  ....   0.010
   Quad. conv. algorithm                .... NR
 SOSCF                  CNVSOSCF        .... off
 Level Shifting         CNVShift        .... on
   Level shift para.    LevelShift      ....    0.2500
   Turn off err/grad.   ShiftErr        ....    0.0010
 Zerner damping         CNVZerner       .... off
 Static damping         CNVDamp         .... on
   Fraction old density DampFac         ....    0.7000
   Max. Damping (<1)    DampMax         ....    0.9800
   Min. Damping (>=0)   DampMin         ....    0.0000
   Turn off err/grad.   DampErr         ....    0.1000
 Fernandez-Rico         CNVRico         .... off

SCF Procedure:
 Maximum # iterations   MaxIter         ....   250
 SCF integral mode      SCFMode         .... Direct
   Integral package                     .... SHARK and LIBINT hybrid scheme
 Reset frequency        DirectResetFreq ....    20
 Integral Threshold     Thresh          ....  2.500e-11 Eh
 Primitive CutOff       TCut            ....  2.500e-12 Eh

Convergence Tolerance:
 Convergence Check Mode ConvCheckMode   .... Total+1el-Energy
 Convergence forced     ConvForced      .... 0
 Energy Change          TolE            ....  1.000e-08 Eh
 1-El. energy change                    ....  1.000e-05 Eh
 DIIS Error             TolErr          ....  5.000e-07


Diagonalization of the overlap matrix:
Smallest eigenvalue                        ... 6.280e-04
Time for diagonalization                   ...    0.003 sec
Threshold for overlap eigenvalues          ... 1.000e-08
Number of eigenvalues below threshold      ... 0
Time for construction of square roots      ...    0.002 sec
Total time needed                          ...    0.005 sec

Time for model grid setup =    0.045 sec

------------------------------
INITIAL GUESS: MODEL POTENTIAL
------------------------------
Loading Hartree-Fock densities                     ... done
Calculating cut-offs                               ... done
Initializing the effective Hamiltonian             ... done
Setting up the integral package (SHARK)            ... done
Starting the Coulomb interaction                   ... done (   0.0 sec)
Reading the grid                                   ... done
Mapping shells                                     ... done
Starting the XC term evaluation                    ... done (   0.0 sec)
  promolecular density results
     # of electrons  =     54.994489251
     EX              =    -44.475534099
     EC              =     -1.826086313
     EX+EC           =    -46.301620412
Transforming the Hamiltonian                       ... done (   0.0 sec)
Diagonalizing the Hamiltonian                      ... done (   0.0 sec)
Back transforming the eigenvectors                 ... done (   0.0 sec)
Now organizing SCF variables                       ... done
                      ------------------
                      INITIAL GUESS DONE (   0.1 sec)
                      ------------------
-------------------
DFT GRID GENERATION
-------------------

General Integration Accuracy     IntAcc      ... 4.388
Radial Grid Type                 RadialGrid  ... OptM3 with GC (2021)
Angular Grid (max. ang.)         AngularGrid ... 4 (Lebedev-302)
Angular grid pruning method      GridPruning ... 4 (adaptive)
Weight generation scheme         WeightScheme... Becke
Basis function cutoff            BFCut       ... 1.0000e-11
Integration weight cutoff        WCut        ... 1.0000e-14
Angular grids for H and He will be reduced by one unit
Partially contracted basis set               ... off
Rotationally invariant grid construction     ... off

Total number of grid points                  ...    71007
Total number of batches                      ...     1119
Average number of points per batch           ...       63
Average number of grid points per atom       ...     4438
Time for grid setup =    0.266 sec

--------------------
COSX GRID GENERATION
--------------------

GRIDX 1
-------
General Integration Accuracy     IntAcc      ... 3.816
Radial Grid Type                 RadialGrid  ... OptM3 with GC (2021)
Angular Grid (max. ang.)         AngularGrid ... 1 (Lebedev-50)
Angular grid pruning method      GridPruning ... 4 (adaptive)
Weight generation scheme         WeightScheme... Becke
Basis function cutoff            BFCut       ... 1.0000e-11
Integration weight cutoff        WCut        ... 1.0000e-14
Angular grids for H and He will be reduced by one unit
Partially contracted basis set               ... on
Rotationally invariant grid construction     ... off

Total number of grid points                  ...     9091
Total number of batches                      ...      151
Average number of points per batch           ...       60
Average number of grid points per atom       ...      568
UseSFitting                                  ... on

GRIDX 2
-------
General Integration Accuracy     IntAcc      ... 4.020
Radial Grid Type                 RadialGrid  ... OptM3 with GC (2021)
Angular Grid (max. ang.)         AngularGrid ... 2 (Lebedev-110)
Angular grid pruning method      GridPruning ... 4 (adaptive)
Weight generation scheme         WeightScheme... Becke
Basis function cutoff            BFCut       ... 1.0000e-11
Integration weight cutoff        WCut        ... 1.0000e-14
Angular grids for H and He will be reduced by one unit
Partially contracted basis set               ... on
Rotationally invariant grid construction     ... off

Total number of grid points                  ...    19380
Total number of batches                      ...      311
Average number of points per batch           ...       62
Average number of grid points per atom       ...     1211
UseSFitting                                  ... on

GRIDX 3
-------
General Integration Accuracy     IntAcc      ... 4.338
Radial Grid Type                 RadialGrid  ... OptM3 with GC (2021)
Angular Grid (max. ang.)         AngularGrid ... 3 (Lebedev-194)
Angular grid pruning method      GridPruning ... 4 (adaptive)
Weight generation scheme         WeightScheme... Becke
Basis function cutoff            BFCut       ... 1.0000e-11
Integration weight cutoff        WCut        ... 1.0000e-14
Angular grids for H and He will be reduced by one unit
Partially contracted basis set               ... on
Rotationally invariant grid construction     ... off

Total number of grid points                  ...    42483
Total number of batches                      ...      671
Average number of points per batch           ...       63
Average number of grid points per atom       ...     2655
UseSFitting                                  ... on

Time for X-Grid setup             =    0.203 sec

--------------
SCF ITERATIONS
--------------
ITER       Energy         Delta-E        Max-DP      RMS-DP      [F,P]     Damp
               ***  Starting incremental Fock matrix formation  ***
  0   -345.3680601293   0.000000000000 0.04772942  0.00129918  0.1287388 0.7000
  1   -345.4497720435  -0.081711914106 0.02902049  0.00088032  0.0492590 0.7000
                               ***Turning on DIIS***
  2   -345.4811117847  -0.031339741261 0.04192623  0.00151200  0.0156679 0.0000
  3   -345.5320426695  -0.050930884767 0.02883172  0.00067013  0.0325291 0.0000
  4   -345.5445072182  -0.012464548683 0.00887598  0.00024031  0.0141219 0.0000
  5   -345.5458094411  -0.001302222894 0.00803761  0.00012981  0.0090078 0.0000
  6   -345.5464426667  -0.000633225681 0.00902838  0.00013504  0.0056717 0.0000
  7   -345.5469022510  -0.000459584307 0.00675205  0.00008883  0.0044407 0.0000
  8   -345.5471286980  -0.000226446974 0.00620416  0.00009226  0.0033936 0.0000
  9   -345.5472945400  -0.000165841996 0.00328173  0.00005515  0.0014490 0.0000
 10   -345.5473538484  -0.000059308364 0.00343423  0.00006270  0.0008885 0.0000
               *** Restarting incremental Fock matrix formation ***
                                   *** Resetting DIIS ***
 11   -345.5473742201  -0.000020371706 0.00135775  0.00002064  0.0005934 0.0000
 12   -345.5473741470   0.000000073051 0.00033566  0.00000741  0.0011454 0.0000
 13   -345.5473779697  -0.000003822645 0.00051351  0.00000922  0.0004733 0.0000
 14   -345.5473793657  -0.000001396061 0.00039216  0.00000810  0.0001626 0.0000
 15   -345.5473801077  -0.000000741973 0.00043000  0.00000694  0.0001727 0.0000
 16   -345.5473806276  -0.000000519938 0.00020130  0.00000414  0.0000713 0.0000
 17   -345.5473807343  -0.000000106663 0.00005035  0.00000093  0.0000170 0.0000
 18   -345.5473807475  -0.000000013205 0.00002762  0.00000052  0.0000093 0.0000
 19   -345.5473807486  -0.000000001084 0.00002260  0.00000041  0.0000073 0.0000
 20   -345.5473807492  -0.000000000591 0.00000943  0.00000021  0.0000077 0.0000
 21   -345.5473807516  -0.000000002417 0.00000896  0.00000016  0.0000025 0.0000
 22   -345.5473807507   0.000000000905 0.00000432  0.00000008  0.0000027 0.0000
                 **** Energy Check signals convergence ****

               *****************************************************
               *                     SUCCESS                       *
               *           SCF CONVERGED AFTER  23 CYCLES          *
               *****************************************************

Old exchange energy                            =    -11.353324538 Eh
New exchange energy                            =    -11.353367326 Eh
Exchange energy change after final integration =     -0.000042788 Eh
Total energy after final integration           =   -345.547423539 Eh
Final COS-X integration done in                =     0.817 sec

----------------
TOTAL SCF ENERGY
----------------

Total Energy       :         -345.54742354 Eh           -9402.82342 eV

Components:
Nuclear Repulsion  :          325.50507714 Eh            8857.44345 eV
Electronic Energy  :         -671.05250068 Eh          -18260.26688 eV
One Electron Energy:        -1115.77362790 Eh          -30361.74398 eV
Two Electron Energy:          444.72112722 Eh           12101.47710 eV
Max COSX asymmetry :            0.00000219 Eh               0.00006 eV

Virial components:
Potential Energy   :         -688.20199611 Eh          -18726.92837 eV
Kinetic Energy     :          342.65457257 Eh            9324.10495 eV
Virial Ratio       :            2.00844247


DFT components:
N(Alpha)           :       28.000003067129 electrons
N(Beta)            :       26.999997751910 electrons
N(Total)           :       55.000000819039 electrons
E(X)               :      -33.991446571405 Eh       
E(C)               :       -1.837198491306 Eh       
E(XC)              :      -35.828645062711 Eh       
DFET-embed. en.    :        0.000000000000 Eh       

---------------
SCF CONVERGENCE
---------------

  Last Energy change         ...   -4.3082e-10  Tolerance :   1.0000e-08
  Last MAX-Density change    ...    0.0000e+00  Tolerance :   1.0000e-07
  Last RMS-Density change    ...    0.0000e+00  Tolerance :   5.0000e-09
  Last DIIS Error            ...    1.8058e-06  Tolerance :   5.0000e-07

             **** THE GBW FILE WAS UPDATED (TS_vdwLSy_ll_ad_1-4_0-1_conf164_opt_orca.gbw) ****
             **** DENSITY TS_vdwLSy_ll_ad_1-4_0-1_conf164_opt_orca.scfp WAS UPDATED ****
             **** ENERGY FILE WAS UPDATED (TS_vdwLSy_ll_ad_1-4_0-1_conf164_opt_orca.en.tmp) ****
----------------------
UHF SPIN CONTAMINATION
----------------------

Warning: in a DFT calculation there is little theoretical justification to 
         calculate <S**2> as in Hartree-Fock theory. We will do it anyways
         but you should keep in mind that the values have only limited relevance

Expectation value of <S**2>     :     0.816029
Ideal value S*(S+1) for S=0.5   :     0.750000
Deviation                       :     0.066029

             **** THE GBW FILE WAS UPDATED (TS_vdwLSy_ll_ad_1-4_0-1_conf164_opt_orca.gbw) ****
             **** DENSITY TS_vdwLSy_ll_ad_1-4_0-1_conf164_opt_orca.scfp WAS UPDATED ****
----------------
ORBITAL ENERGIES
----------------
                 SPIN UP ORBITALS
  NO   OCC          E(Eh)            E(eV) 
   0   1.0000     -19.242755      -523.6220 
   1   1.0000     -19.205771      -522.6156 
   2   1.0000     -10.281136      -279.7639 
   3   1.0000     -10.278246      -279.6853 
   4   1.0000     -10.240771      -278.6655 
   5   1.0000     -10.238227      -278.5963 
   6   1.0000     -10.227349      -278.3003 
   7   1.0000      -1.052792       -28.6479 
   8   1.0000      -0.951493       -25.8914 
   9   1.0000      -0.841289       -22.8926 
  10   1.0000      -0.740348       -20.1459 
  11   1.0000      -0.716491       -19.4967 
  12   1.0000      -0.581461       -15.8224 
  13   1.0000      -0.574817       -15.6416 
  14   1.0000      -0.541661       -14.7394 
  15   1.0000      -0.503402       -13.6983 
  16   1.0000      -0.475487       -12.9387 
  17   1.0000      -0.453265       -12.3340 
  18   1.0000      -0.417331       -11.3561 
  19   1.0000      -0.399174       -10.8621 
  20   1.0000      -0.386933       -10.5290 
  21   1.0000      -0.382372       -10.4049 
  22   1.0000      -0.369439       -10.0529 
  23   1.0000      -0.349622        -9.5137 
  24   1.0000      -0.344664        -9.3788 
  25   1.0000      -0.315389        -8.5822 
  26   1.0000      -0.257958        -7.0194 
  27   1.0000      -0.199359        -5.4248 
  28   0.0000      -0.030721        -0.8360 
  29   0.0000       0.069816         1.8998 
  30   0.0000       0.095112         2.5881 
  31   0.0000       0.113671         3.0932 
  32   0.0000       0.114330         3.1111 
  33   0.0000       0.125556         3.4165 
  34   0.0000       0.137889         3.7521 
  35   0.0000       0.147514         4.0141 
  36   0.0000       0.156699         4.2640 
  37   0.0000       0.174918         4.7597 
  38   0.0000       0.189515         5.1570 
  39   0.0000       0.201380         5.4798 
  40   0.0000       0.212270         5.7762 
  41   0.0000       0.250935         6.8283 
  42   0.0000       0.259563         7.0631 
  43   0.0000       0.312186         8.4950 
  44   0.0000       0.430220        11.7069 
  45   0.0000       0.458575        12.4785 
  46   0.0000       0.478486        13.0203 
  47   0.0000       0.485062        13.1992 
  48   0.0000       0.503566        13.7027 
  49   0.0000       0.527636        14.3577 
  50   0.0000       0.563508        15.3338 
  51   0.0000       0.580756        15.8032 
  52   0.0000       0.610218        16.6049 
  53   0.0000       0.615467        16.7477 
  54   0.0000       0.635203        17.2847 
  55   0.0000       0.641259        17.4496 
  56   0.0000       0.651524        17.7289 
  57   0.0000       0.660557        17.9747 
  58   0.0000       0.672408        18.2972 
  59   0.0000       0.685782        18.6611 
  60   0.0000       0.691695        18.8220 
  61   0.0000       0.698048        18.9949 
  62   0.0000       0.705025        19.1847 
  63   0.0000       0.713406        19.4128 
  64   0.0000       0.728778        19.8311 
  65   0.0000       0.739906        20.1339 
  66   0.0000       0.772031        21.0080 
  67   0.0000       0.790296        21.5050 
  68   0.0000       0.864683        23.5292 
  69   0.0000       0.936164        25.4743 
  70   0.0000       0.953488        25.9457 
  71   0.0000       0.991343        26.9758 
  72   0.0000       0.996326        27.1114 
  73   0.0000       1.047698        28.5093 
  74   0.0000       1.059853        28.8401 
  75   0.0000       1.094135        29.7729 
  76   0.0000       1.145938        31.1825 
  77   0.0000       1.208075        32.8734 
  78   0.0000       1.251600        34.0578 
  79   0.0000       1.298134        35.3240 
  80   0.0000       1.349173        36.7129 
  81   0.0000       1.361786        37.0561 
  82   0.0000       1.420485        38.6534 
  83   0.0000       1.477850        40.2144 
  84   0.0000       1.491271        40.5795 
  85   0.0000       1.536835        41.8194 
  86   0.0000       1.554401        42.2974 
  87   0.0000       1.571852        42.7723 
  88   0.0000       1.612242        43.8713 
  89   0.0000       1.625319        44.2272 
  90   0.0000       1.662161        45.2297 
  91   0.0000       1.683552        45.8118 
  92   0.0000       1.689247        45.9667 
  93   0.0000       1.749268        47.6000 
  94   0.0000       1.783247        48.5246 
  95   0.0000       1.789028        48.6819 
  96   0.0000       1.801314        49.0163 
  97   0.0000       1.810366        49.2626 
  98   0.0000       1.831680        49.8425 
  99   0.0000       1.848703        50.3058 
 100   0.0000       1.860887        50.6373 
 101   0.0000       1.921668        52.2912 
 102   0.0000       1.927883        52.4604 
 103   0.0000       1.948648        53.0254 
 104   0.0000       1.960075        53.3363 
 105   0.0000       1.997048        54.3424 
 106   0.0000       2.020264        54.9742 
 107   0.0000       2.053727        55.8848 
 108   0.0000       2.082740        56.6742 
 109   0.0000       2.115720        57.5717 
 110   0.0000       2.171029        59.0767 
 111   0.0000       2.202381        59.9298 
 112   0.0000       2.249232        61.2047 
 113   0.0000       2.270397        61.7807 
 114   0.0000       2.292694        62.3874 
 115   0.0000       2.323947        63.2378 
 116   0.0000       2.329822        63.3977 
 117   0.0000       2.409467        65.5649 
 118   0.0000       2.430863        66.1471 
 119   0.0000       2.500991        68.0554 
 120   0.0000       2.560700        69.6802 
 121   0.0000       2.592022        70.5325 
 122   0.0000       2.620650        71.3115 
 123   0.0000       2.655880        72.2702 
 124   0.0000       2.677178        72.8497 
 125   0.0000       2.695721        73.3543 
 126   0.0000       2.769246        75.3550 
 127   0.0000       2.821499        76.7769 
 128   0.0000       2.855596        77.7047 
 129   0.0000       2.886081        78.5343 
 130   0.0000       2.893260        78.7296 
 131   0.0000       2.920380        79.4676 
 132   0.0000       2.947011        80.1923 
 133   0.0000       2.970372        80.8279 
 134   0.0000       3.012045        81.9619 
 135   0.0000       3.025309        82.3228 
 136   0.0000       3.074652        83.6655 
 137   0.0000       3.092410        84.1488 
 138   0.0000       3.136713        85.3543 
 139   0.0000       3.182131        86.5902 
 140   0.0000       3.298168        89.7477 
 141   0.0000       3.471878        94.4746 
 142   0.0000       3.780392       102.8697 

                 SPIN DOWN ORBITALS
  NO   OCC          E(Eh)            E(eV) 
   0   1.0000     -19.243617      -523.6454 
   1   1.0000     -19.191407      -522.2247 
   2   1.0000     -10.280502      -279.7467 
   3   1.0000     -10.267400      -279.3902 
   4   1.0000     -10.241586      -278.6877 
   5   1.0000     -10.238955      -278.6161 
   6   1.0000     -10.227231      -278.2971 
   7   1.0000      -1.049979       -28.5714 
   8   1.0000      -0.922948       -25.1147 
   9   1.0000      -0.834216       -22.7002 
  10   1.0000      -0.736874       -20.0514 
  11   1.0000      -0.708231       -19.2719 
  12   1.0000      -0.573885       -15.6162 
  13   1.0000      -0.568489       -15.4694 
  14   1.0000      -0.536950       -14.6112 
  15   1.0000      -0.493507       -13.4290 
  16   1.0000      -0.471978       -12.8432 
  17   1.0000      -0.446313       -12.1448 
  18   1.0000      -0.406124       -11.0512 
  19   1.0000      -0.391435       -10.6515 
  20   1.0000      -0.384161       -10.4536 
  21   1.0000      -0.375647       -10.2219 
  22   1.0000      -0.368184       -10.0188 
  23   1.0000      -0.344664        -9.3788 
  24   1.0000      -0.332543        -9.0490 
  25   1.0000      -0.300785        -8.1848 
  26   1.0000      -0.247377        -6.7315 
  27   0.0000      -0.059387        -1.6160 
  28   0.0000       0.016169         0.4400 
  29   0.0000       0.071704         1.9512 
  30   0.0000       0.098546         2.6816 
  31   0.0000       0.115529         3.1437 
  32   0.0000       0.119071         3.2401 
  33   0.0000       0.127867         3.4794 
  34   0.0000       0.140776         3.8307 
  35   0.0000       0.150440         4.0937 
  36   0.0000       0.158132         4.3030 
  37   0.0000       0.176995         4.8163 
  38   0.0000       0.192120         5.2278 
  39   0.0000       0.204213         5.5569 
  40   0.0000       0.214985         5.8500 
  41   0.0000       0.252713         6.8767 
  42   0.0000       0.264045         7.1850 
  43   0.0000       0.316323         8.6076 
  44   0.0000       0.431568        11.7436 
  45   0.0000       0.461789        12.5659 
  46   0.0000       0.485767        13.2184 
  47   0.0000       0.499905        13.6031 
  48   0.0000       0.506810        13.7910 
  49   0.0000       0.538469        14.6525 
  50   0.0000       0.566235        15.4080 
  51   0.0000       0.599049        16.3010 
  52   0.0000       0.613171        16.6852 
  53   0.0000       0.619164        16.8483 
  54   0.0000       0.639123        17.3914 
  55   0.0000       0.644130        17.5277 
  56   0.0000       0.654654        17.8140 
  57   0.0000       0.665454        18.1079 
  58   0.0000       0.676002        18.3949 
  59   0.0000       0.689937        18.7741 
  60   0.0000       0.696108        18.9421 
  61   0.0000       0.700157        19.0522 
  62   0.0000       0.707206        19.2441 
  63   0.0000       0.716487        19.4966 
  64   0.0000       0.730070        19.8662 
  65   0.0000       0.744566        20.2607 
  66   0.0000       0.775064        21.0906 
  67   0.0000       0.795186        21.6381 
  68   0.0000       0.867191        23.5975 
  69   0.0000       0.948742        25.8166 
  70   0.0000       0.957921        26.0664 
  71   0.0000       0.998538        27.1716 
  72   0.0000       1.015999        27.6467 
  73   0.0000       1.050566        28.5874 
  74   0.0000       1.069568        29.1044 
  75   0.0000       1.101056        29.9612 
  76   0.0000       1.152078        31.3496 
  77   0.0000       1.210603        32.9422 
  78   0.0000       1.261056        34.3151 
  79   0.0000       1.309334        35.6288 
  80   0.0000       1.357875        36.9497 
  81   0.0000       1.366919        37.1957 
  82   0.0000       1.423649        38.7395 
  83   0.0000       1.477542        40.2060 
  84   0.0000       1.495260        40.6881 
  85   0.0000       1.541397        41.9435 
  86   0.0000       1.563199        42.5368 
  87   0.0000       1.576412        42.8963 
  88   0.0000       1.620504        44.0961 
  89   0.0000       1.627435        44.2848 
  90   0.0000       1.665406        45.3180 
  91   0.0000       1.689842        45.9829 
  92   0.0000       1.694514        46.1101 
  93   0.0000       1.752692        47.6932 
  94   0.0000       1.785662        48.5903 
  95   0.0000       1.793590        48.8061 
  96   0.0000       1.803467        49.0748 
  97   0.0000       1.813281        49.3419 
  98   0.0000       1.834394        49.9164 
  99   0.0000       1.851780        50.3895 
 100   0.0000       1.864915        50.7469 
 101   0.0000       1.923726        52.3472 
 102   0.0000       1.931738        52.5653 
 103   0.0000       1.952097        53.1193 
 104   0.0000       1.962366        53.3987 
 105   0.0000       2.005687        54.5775 
 106   0.0000       2.029034        55.2128 
 107   0.0000       2.059587        56.0442 
 108   0.0000       2.086043        56.7641 
 109   0.0000       2.118859        57.6571 
 110   0.0000       2.177097        59.2418 
 111   0.0000       2.207762        60.0762 
 112   0.0000       2.253454        61.3196 
 113   0.0000       2.279063        62.0165 
 114   0.0000       2.305880        62.7462 
 115   0.0000       2.327691        63.3397 
 116   0.0000       2.338918        63.6452 
 117   0.0000       2.418036        65.7981 
 118   0.0000       2.433607        66.2218 
 119   0.0000       2.508842        68.2691 
 120   0.0000       2.567565        69.8670 
 121   0.0000       2.592661        70.5499 
 122   0.0000       2.624882        71.4267 
 123   0.0000       2.675802        72.8123 
 124   0.0000       2.682596        72.9971 
 125   0.0000       2.702201        73.5306 
 126   0.0000       2.776648        75.5564 
 127   0.0000       2.824591        76.8610 
 128   0.0000       2.859787        77.8188 
 129   0.0000       2.890636        78.6582 
 130   0.0000       2.898200        78.8640 
 131   0.0000       2.921001        79.4845 
 132   0.0000       2.950221        80.2796 
 133   0.0000       2.981769        81.1381 
 134   0.0000       3.015764        82.0631 
 135   0.0000       3.031472        82.4905 
 136   0.0000       3.076163        83.7066 
 137   0.0000       3.109152        84.6043 
 138   0.0000       3.139318        85.4252 
 139   0.0000       3.187537        86.7373 
 140   0.0000       3.313009        90.1516 
 141   0.0000       3.472229        94.4841 
 142   0.0000       3.792800       103.2073 

                    ********************************
                    * MULLIKEN POPULATION ANALYSIS *
                    ********************************

--------------------------------------------
MULLIKEN ATOMIC CHARGES AND SPIN POPULATIONS
--------------------------------------------
   0 O :   -0.255034    0.489393
   1 O :   -0.307871   -0.111301
   2 C :    0.002648    0.029259
   3 C :    0.056091   -0.060086
   4 C :   -0.132393    0.654098
   5 C :    0.044575   -0.056907
   6 C :    0.060048    0.007252
   7 H :    0.165411   -0.009572
   8 H :    0.041460   -0.004507
   9 H :    0.055558    0.003511
  10 H :    0.044126    0.048993
  11 H :    0.041786   -0.030209
  12 H :    0.056523    0.012703
  13 H :    0.043177    0.029483
  14 H :    0.052978   -0.001587
  15 H :    0.030917   -0.000524
Sum of atomic charges         :   -0.0000000
Sum of atomic spin populations:    1.0000000

-----------------------------------------------------
MULLIKEN REDUCED ORBITAL CHARGES AND SPIN POPULATIONS
-----------------------------------------------------
CHARGE
  0 O s       :     3.825977  s :     3.825977
      pz      :     1.415562  p :     4.419852
      px      :     1.155393
      py      :     1.848897
      dz2     :     0.003715  d :     0.009205
      dxz     :     0.000548
      dyz     :     0.002254
      dx2y2   :     0.002093
      dxy     :     0.000595
  1 O s       :     3.891032  s :     3.891032
      pz      :     1.373571  p :     4.401563
      px      :     1.191698
      py      :     1.836294
      dz2     :     0.005887  d :     0.015277
      dxz     :     0.002366
      dyz     :     0.002541
      dx2y2   :     0.003181
      dxy     :     0.001301
  2 C s       :     3.210985  s :     3.210985
      pz      :     0.753169  p :     2.711650
      px      :     0.966097
      py      :     0.992384
      dz2     :     0.020818  d :     0.074717
      dxz     :     0.014530
      dyz     :     0.016841
      dx2y2   :     0.013412
      dxy     :     0.009117
  3 C s       :     3.035579  s :     3.035579
      pz      :     0.953996  p :     2.871625
      px      :     0.931405
      py      :     0.986224
      dz2     :     0.008347  d :     0.036705
      dxz     :     0.007583
      dyz     :     0.006698
      dx2y2   :     0.008940
      dxy     :     0.005137
  4 C s       :     3.354849  s :     3.354849
      pz      :     0.935738  p :     2.739562
      px      :     0.833617
      py      :     0.970207
      dz2     :     0.007311  d :     0.037983
      dxz     :     0.007710
      dyz     :     0.009386
      dx2y2   :     0.007207
      dxy     :     0.006368
  5 C s       :     2.940098  s :     2.940098
      pz      :     1.027637  p :     2.979209
      px      :     1.005329
      py      :     0.946242
      dz2     :     0.006600  d :     0.036117
      dxz     :     0.007015
      dyz     :     0.007407
      dx2y2   :     0.006174
      dxy     :     0.008922
  6 C s       :     2.951684  s :     2.951684
      pz      :     0.984632  p :     2.954945
      px      :     1.025670
      py      :     0.944643
      dz2     :     0.008117  d :     0.033323
      dxz     :     0.006640
      dyz     :     0.004464
      dx2y2   :     0.007618
      dxy     :     0.006484
  7 H s       :     0.766769  s :     0.766769
      pz      :     0.033106  p :     0.067820
      px      :     0.010904
      py      :     0.023810
  8 H s       :     0.936946  s :     0.936946
      pz      :     0.006879  p :     0.021594
      px      :     0.008871
      py      :     0.005844
  9 H s       :     0.921288  s :     0.921288
      pz      :     0.004366  p :     0.023154
      px      :     0.003958
      py      :     0.014830
 10 H s       :     0.932747  s :     0.932747
      pz      :     0.010606  p :     0.023127
      px      :     0.007238
      py      :     0.005283
 11 H s       :     0.933960  s :     0.933960
      pz      :     0.011648  p :     0.024254
      px      :     0.008030
      py      :     0.004575
 12 H s       :     0.920268  s :     0.920268
      pz      :     0.011397  p :     0.023209
      px      :     0.005750
      py      :     0.006063
 13 H s       :     0.933223  s :     0.933223
      pz      :     0.005744  p :     0.023600
      px      :     0.009960
      py      :     0.007897
 14 H s       :     0.923696  s :     0.923696
      pz      :     0.005039  p :     0.023326
      px      :     0.012532
      py      :     0.005755
 15 H s       :     0.945951  s :     0.945951
      pz      :     0.012650  p :     0.023133
      px      :     0.005041
      py      :     0.005442

SPIN
  0 O s       :     0.003752  s :     0.003752
      pz      :     0.003802  p :     0.485535
      px      :     0.466070
      py      :     0.015663
      dz2     :    -0.000010  d :     0.000107
      dxz     :     0.000159
      dyz     :     0.000018
      dx2y2   :    -0.000197
      dxy     :     0.000136
  1 O s       :     0.020682  s :     0.020682
      pz      :     0.017181  p :    -0.133388
      px      :    -0.155147
      py      :     0.004578
      dz2     :     0.000127  d :     0.001406
      dxz     :     0.000008
      dyz     :    -0.000045
      dx2y2   :     0.001170
      dxy     :     0.000146
  2 C s       :     0.001484  s :     0.001484
      pz      :     0.006844  p :     0.027859
      px      :     0.017221
      py      :     0.003794
      dz2     :    -0.000355  d :    -0.000084
      dxz     :     0.000285
      dyz     :     0.000047
      dx2y2   :    -0.000116
      dxy     :     0.000055
  3 C s       :    -0.016313  s :    -0.016313
      pz      :    -0.026032  p :    -0.048850
      px      :    -0.011922
      py      :    -0.010896
      dz2     :     0.001965  d :     0.005077
      dxz     :     0.002910
      dyz     :     0.000055
      dx2y2   :     0.000119
      dxy     :     0.000028
  4 C s       :     0.079627  s :     0.079627
      pz      :     0.088974  p :     0.576179
      px      :     0.421028
      py      :     0.066177
      dz2     :    -0.000283  d :    -0.001709
      dxz     :    -0.000694
      dyz     :    -0.000052
      dx2y2   :    -0.000607
      dxy     :    -0.000073
  5 C s       :    -0.016910  s :    -0.016910
      pz      :    -0.004920  p :    -0.043935
      px      :    -0.014465
      py      :    -0.024550
      dz2     :     0.000061  d :     0.003937
      dxz     :     0.000138
      dyz     :     0.001031
      dx2y2   :     0.000461
      dxy     :     0.002246
  6 C s       :     0.001021  s :     0.001021
      pz      :     0.003120  p :     0.006286
      px      :     0.003487
      py      :    -0.000322
      dz2     :    -0.000065  d :    -0.000055
      dxz     :    -0.000001
      dyz     :     0.000022
      dx2y2   :    -0.000036
      dxy     :     0.000026
  7 H s       :    -0.013273  s :    -0.013273
      pz      :     0.000073  p :     0.003701
      px      :     0.003771
      py      :    -0.000142
  8 H s       :    -0.004753  s :    -0.004753
      pz      :     0.000118  p :     0.000246
      px      :     0.000118
      py      :     0.000010
  9 H s       :     0.003659  s :     0.003659
      pz      :    -0.000108  p :    -0.000148
      px      :     0.000005
      py      :    -0.000045
 10 H s       :     0.049418  s :     0.049418
      pz      :    -0.000399  p :    -0.000425
      px      :    -0.000131
      py      :     0.000106
 11 H s       :    -0.034242  s :    -0.034242
      pz      :     0.000909  p :     0.004033
      px      :     0.002762
      py      :     0.000362
 12 H s       :     0.012894  s :     0.012894
      pz      :    -0.000051  p :    -0.000191
      px      :     0.000006
      py      :    -0.000147
 13 H s       :     0.029641  s :     0.029641
      pz      :    -0.000003  p :    -0.000157
      px      :     0.000093
      py      :    -0.000247
 14 H s       :    -0.001674  s :    -0.001674
      pz      :     0.000021  p :     0.000087
      px      :     0.000033
      py      :     0.000034
 15 H s       :    -0.000529  s :    -0.000529
      pz      :     0.000015  p :     0.000006
      px      :    -0.000004
      py      :    -0.000005


                     *******************************
                     * LOEWDIN POPULATION ANALYSIS *
                     *******************************

-------------------------------------------
LOEWDIN ATOMIC CHARGES AND SPIN POPULATIONS
-------------------------------------------
   0 O :   -0.160743    0.451045
   1 O :   -0.112074   -0.065580
   2 C :    0.058409    0.025282
   3 C :   -0.049240   -0.012782
   4 C :    0.074827    0.530173
   5 C :   -0.046347   -0.011380
   6 C :   -0.043966    0.005315
   7 H :    0.049884    0.006291
   8 H :    0.016031   -0.002029
   9 H :    0.034751    0.002458
  10 H :    0.025941    0.036147
  11 H :    0.019484    0.002213
  12 H :    0.038053    0.009061
  13 H :    0.035529    0.024592
  14 H :    0.035035   -0.000649
  15 H :    0.024424   -0.000157

----------------------------------------------------
LOEWDIN REDUCED ORBITAL CHARGES AND SPIN POPULATIONS
----------------------------------------------------
CHARGE
  0 O s       :     3.632225  s :     3.632225
      pz      :     1.498152  p :     4.511795
      px      :     1.174672
      py      :     1.838971
      dz2     :     0.007222  d :     0.016724
      dxz     :     0.000532
      dyz     :     0.004386
      dx2y2   :     0.003580
      dxy     :     0.001004
  1 O s       :     3.637907  s :     3.637907
      pz      :     1.443179  p :     4.447475
      px      :     1.171518
      py      :     1.832778
      dz2     :     0.010163  d :     0.026691
      dxz     :     0.004304
      dyz     :     0.004136
      dx2y2   :     0.005916
      dxy     :     0.002172
  2 C s       :     2.861926  s :     2.861926
      pz      :     0.866606  p :     2.912193
      px      :     1.018093
      py      :     1.027494
      dz2     :     0.049670  d :     0.167472
      dxz     :     0.030500
      dyz     :     0.034187
      dx2y2   :     0.034332
      dxy     :     0.018783
  3 C s       :     2.844913  s :     2.844913
      pz      :     1.037067  p :     3.108017
      px      :     1.020843
      py      :     1.050107
      dz2     :     0.022697  d :     0.096310
      dxz     :     0.019762
      dyz     :     0.017629
      dx2y2   :     0.024191
      dxy     :     0.012030
  4 C s       :     2.926012  s :     2.926012
      pz      :     1.030362  p :     2.912392
      px      :     0.861734
      py      :     1.020296
      dz2     :     0.018070  d :     0.086769
      dxz     :     0.016618
      dyz     :     0.023145
      dx2y2   :     0.015866
      dxy     :     0.013071
  5 C s       :     2.834126  s :     2.834126
      pz      :     1.053696  p :     3.119758
      px      :     1.041636
      py      :     1.024425
      dz2     :     0.015857  d :     0.092463
      dxz     :     0.019137
      dyz     :     0.017854
      dx2y2   :     0.016632
      dxy     :     0.022981
  6 C s       :     2.847826  s :     2.847826
      pz      :     1.039552  p :     3.110862
      px      :     1.044837
      py      :     1.026472
      dz2     :     0.020850  d :     0.085278
      dxz     :     0.017428
      dyz     :     0.010655
      dx2y2   :     0.021842
      dxy     :     0.014503
  7 H s       :     0.763812  s :     0.763812
      pz      :     0.092425  p :     0.186305
      px      :     0.030600
      py      :     0.063280
  8 H s       :     0.914179  s :     0.914179
      pz      :     0.022740  p :     0.069791
      px      :     0.027989
      py      :     0.019061
  9 H s       :     0.895164  s :     0.895164
      pz      :     0.013629  p :     0.070084
      px      :     0.013960
      py      :     0.042495
 10 H s       :     0.904755  s :     0.904755
      pz      :     0.030915  p :     0.069304
      px      :     0.022825
      py      :     0.015564
 11 H s       :     0.902122  s :     0.902122
      pz      :     0.035101  p :     0.078394
      px      :     0.026747
      py      :     0.016547
 12 H s       :     0.892878  s :     0.892878
      pz      :     0.033329  p :     0.069069
      px      :     0.017503
      py      :     0.018237
 13 H s       :     0.895233  s :     0.895233
      pz      :     0.017364  p :     0.069238
      px      :     0.028796
      py      :     0.023079
 14 H s       :     0.894317  s :     0.894317
      pz      :     0.015286  p :     0.070648
      px      :     0.035949
      py      :     0.019413
 15 H s       :     0.905575  s :     0.905575
      pz      :     0.036326  p :     0.070000
      px      :     0.015715
      py      :     0.017959

SPIN
  0 O s       :     0.005641  s :     0.005641
      pz      :    -0.000230  p :     0.445452
      px      :     0.430915
      py      :     0.014766
      dz2     :     0.000016  d :    -0.000047
      dxz     :     0.000018
      dyz     :    -0.000095
      dx2y2   :    -0.000103
      dxy     :     0.000117
  1 O s       :     0.041183  s :     0.041183
      pz      :     0.017732  p :    -0.110439
      px      :    -0.133890
      py      :     0.005719
      dz2     :     0.000559  d :     0.003676
      dxz     :     0.000063
      dyz     :     0.000004
      dx2y2   :     0.002708
      dxy     :     0.000342
  2 C s       :     0.002863  s :     0.002863
      pz      :     0.004964  p :     0.023444
      px      :     0.015871
      py      :     0.002610
      dz2     :    -0.001151  d :    -0.001026
      dxz     :     0.000514
      dyz     :    -0.000094
      dx2y2   :    -0.000349
      dxy     :     0.000054
  3 C s       :    -0.004029  s :    -0.004029
      pz      :    -0.012486  p :    -0.022249
      px      :    -0.004413
      py      :    -0.005350
      dz2     :     0.005201  d :     0.013495
      dxz     :     0.007235
      dyz     :     0.000569
      dx2y2   :     0.000297
      dxy     :     0.000193
  4 C s       :     0.024965  s :     0.024965
      pz      :     0.082414  p :     0.508524
      px      :     0.371771
      py      :     0.054338
      dz2     :    -0.000858  d :    -0.003316
      dxz     :    -0.000657
      dyz     :    -0.000444
      dx2y2   :    -0.001096
      dxy     :    -0.000262
  5 C s       :    -0.003131  s :    -0.003131
      pz      :    -0.002097  p :    -0.018885
      px      :    -0.005911
      py      :    -0.010877
      dz2     :     0.000417  d :     0.010637
      dxz     :     0.000445
      dyz     :     0.002631
      dx2y2   :     0.001571
      dxy     :     0.005573
  6 C s       :     0.000814  s :     0.000814
      pz      :     0.002037  p :     0.004624
      px      :     0.002551
      py      :     0.000036
      dz2     :    -0.000154  d :    -0.000124
      dxz     :    -0.000009
      dyz     :     0.000024
      dx2y2   :    -0.000064
      dxy     :     0.000079
  7 H s       :    -0.008258  s :    -0.008258
      pz      :     0.001223  p :     0.014549
      px      :     0.012715
      py      :     0.000611
  8 H s       :    -0.003158  s :    -0.003158
      pz      :     0.000129  p :     0.001129
      px      :     0.000879
      py      :     0.000121
  9 H s       :     0.003118  s :     0.003118
      pz      :    -0.000385  p :    -0.000660
      px      :    -0.000084
      py      :    -0.000191
 10 H s       :     0.036895  s :     0.036895
      pz      :    -0.000508  p :    -0.000748
      px      :    -0.000199
      py      :    -0.000042
 11 H s       :    -0.015119  s :    -0.015119
      pz      :     0.003595  p :     0.017332
      px      :     0.011889
      py      :     0.001848
 12 H s       :     0.009718  s :     0.009718
      pz      :    -0.000245  p :    -0.000657
      px      :    -0.000011
      py      :    -0.000400
 13 H s       :     0.025124  s :     0.025124
      pz      :    -0.000047  p :    -0.000532
      px      :    -0.000240
      py      :    -0.000246
 14 H s       :    -0.000996  s :    -0.000996
      pz      :     0.000139  p :     0.000346
      px      :     0.000108
      py      :     0.000099
 15 H s       :    -0.000242  s :    -0.000242
      pz      :     0.000101  p :     0.000086
      px      :     0.000026
      py      :    -0.000041


                      *****************************
                      * MAYER POPULATION ANALYSIS *
                      *****************************

  NA   - Mulliken gross atomic population
  ZA   - Total nuclear charge
  QA   - Mulliken gross atomic charge
  VA   - Mayer's total valence
  BVA  - Mayer's bonded valence
  FA   - Mayer's free valence

  ATOM       NA         ZA         QA         VA         BVA        FA
  0 O      8.2550     8.0000    -0.2550     2.0086     1.7656     0.2430
  1 O      8.3079     8.0000    -0.3079     2.0430     1.9840     0.0591
  2 C      5.9974     6.0000     0.0026     3.9860     3.9851     0.0009
  3 C      5.9439     6.0000     0.0561     3.8485     3.8468     0.0017
  4 C      6.1324     6.0000    -0.1324     3.9716     3.6671     0.3044
  5 C      5.9554     6.0000     0.0446     3.9597     3.9583     0.0014
  6 C      5.9400     6.0000     0.0600     3.9659     3.9659     0.0000
  7 H      0.8346     1.0000     0.1654     1.0138     1.0135     0.0003
  8 H      0.9585     1.0000     0.0415     1.0055     1.0055     0.0000
  9 H      0.9444     1.0000     0.0556     0.9885     0.9884     0.0000
 10 H      0.9559     1.0000     0.0441     0.9761     0.9736     0.0025
 11 H      0.9582     1.0000     0.0418     0.9956     0.9944     0.0012
 12 H      0.9435     1.0000     0.0565     0.9806     0.9804     0.0002
 13 H      0.9568     1.0000     0.0432     0.9763     0.9753     0.0009
 14 H      0.9470     1.0000     0.0530     0.9934     0.9934     0.0000
 15 H      0.9691     1.0000     0.0309     0.9786     0.9786     0.0000

  Mayer bond orders larger than 0.100000
B(  0-O ,  1-O ) :   0.5811 B(  0-O ,  4-C ) :   0.1146 B(  0-O ,  7-H ) :   0.9864 
B(  1-O ,  2-C ) :   0.8998 B(  1-O ,  4-C ) :   0.4254 B(  2-C ,  3-C ) :   0.9918 
B(  2-C ,  6-C ) :   1.0367 B(  2-C ,  8-H ) :   0.9558 B(  3-C ,  4-C ) :   0.9935 
B(  3-C ,  9-H ) :   0.9434 B(  3-C , 10-H ) :   0.9307 B(  4-C ,  5-C ) :   1.0540 
B(  4-C , 11-H ) :   0.9896 B(  5-C ,  6-C ) :   1.0648 B(  5-C , 12-H ) :   0.9313 
B(  5-C , 13-H ) :   0.9138 B(  6-C , 14-H ) :   0.9304 B(  6-C , 15-H ) :   0.9356 



------------------
HIRSHFELD ANALYSIS
------------------

Total integrated alpha density =     28.000003067
Total integrated beta density  =     26.999997752

  ATOM     CHARGE      SPIN    
   0 O   -0.251510    0.436391
   1 O   -0.123397   -0.040151
   2 C    0.062142    0.021737
   3 C   -0.052942    0.022670
   4 C    0.049560    0.420395
   5 C   -0.045722    0.021176
   6 C   -0.047946    0.006277
   7 H    0.145949    0.013445
   8 H    0.036166   -0.000675
   9 H    0.034838    0.003493
  10 H    0.028584    0.033556
  11 H    0.042593    0.027503
  12 H    0.034174    0.009492
  13 H    0.029820    0.024223
  14 H    0.032873    0.000092
  15 H    0.024816    0.000381

  TOTAL  -0.000001    1.000005

-------
TIMINGS
-------

Total SCF time: 0 days 0 hours 0 min 11 sec 

Total time                  ....      11.895 sec
Sum of individual times     ....      11.730 sec  ( 98.6%)

Fock matrix formation       ....      10.669 sec  ( 89.7%)
  Split-RI-J                ....       0.929 sec  (  8.7% of F)
  Chain of spheres X        ....       6.984 sec  ( 65.5% of F)
  XC integration            ....       2.657 sec  ( 24.9% of F)
    Basis function eval.    ....       0.729 sec  ( 27.4% of XC)
    Density eval.           ....       0.707 sec  ( 26.6% of XC)
    XC-Functional eval.     ....       0.231 sec  (  8.7% of XC)
    XC-Potential eval.      ....       0.794 sec  ( 29.9% of XC)
Diagonalization             ....       0.192 sec  (  1.6%)
Density matrix formation    ....       0.010 sec  (  0.1%)
Population analysis         ....       0.173 sec  (  1.5%)
Initial guess               ....       0.044 sec  (  0.4%)
Orbital Transformation      ....       0.000 sec  (  0.0%)
Orbital Orthonormalization  ....       0.000 sec  (  0.0%)
DIIS solution               ....       0.129 sec  (  1.1%)
Grid generation             ....       0.514 sec  (  4.3%)

Maximum memory used throughout the entire SCF-calculation: 52.0 MB


-------------------------------------------------------------------------------
                          DFT DISPERSION CORRECTION                            
                                                                               
                              DFTD3 V3.1  Rev 1                                
                          USING Becke-Johnson damping                          
-------------------------------------------------------------------------------
The PBE0 functional is recognized
Active option DFTDOPT                   ...         4   

molecular C6(AA) [au] = 1930.080538 


            DFT-D V3
 parameters
 s6 scaling factor         :     1.0000 
 a1 scaling factor         :     0.4145 
[...]
 14 H s       :     0.919429  s :     0.919429
      pz      :     0.005087  p :     0.023010
      px      :     0.012816
      py      :     0.005108
 15 H s       :     0.943390  s :     0.943390
      pz      :     0.012320  p :     0.022561
      px      :     0.004691
      py      :     0.005550

SPIN
  0 O s       :     0.002959  s :     0.002959
      pz      :     0.008420  p :     0.482170
      px      :     0.467796
      py      :     0.005954
      dz2     :    -0.000008  d :     0.000033
      dxz     :     0.000108
      dyz     :     0.000012
      dx2y2   :    -0.000150
      dxy     :     0.000072
  1 O s       :     0.018122  s :     0.018122
      pz      :     0.012275  p :    -0.119306
      px      :    -0.147841
      py      :     0.016260
      dz2     :     0.000245  d :     0.001526
      dxz     :    -0.000044
      dyz     :    -0.000014
      dx2y2   :     0.001251
      dxy     :     0.000089
  2 C s       :     0.000462  s :     0.000462
      pz      :     0.003407  p :     0.020711
      px      :     0.013982
      py      :     0.003322
      dz2     :    -0.000268  d :    -0.000071
      dxz     :     0.000241
      dyz     :     0.000056
      dx2y2   :    -0.000134
      dxy     :     0.000034
  3 C s       :    -0.015808  s :    -0.015808
      pz      :    -0.025767  p :    -0.048127
      px      :    -0.011546
      py      :    -0.010814
      dz2     :     0.002040  d :     0.004893
      dxz     :     0.002601
      dyz     :     0.000105
      dx2y2   :     0.000116
      dxy     :     0.000032
  4 C s       :     0.081192  s :     0.081192
      pz      :     0.097911  p :     0.573678
      px      :     0.398537
      py      :     0.077230
      dz2     :    -0.000244  d :    -0.001620
      dxz     :    -0.000682
      dyz     :    -0.000060
      dx2y2   :    -0.000536
      dxy     :    -0.000098
  5 C s       :    -0.016571  s :    -0.016571
      pz      :    -0.004786  p :    -0.043632
      px      :    -0.014444
      py      :    -0.024402
      dz2     :     0.000061  d :     0.003678
      dxz     :     0.000097
      dyz     :     0.001016
      dx2y2   :     0.000548
      dxy     :     0.001957
  6 C s       :     0.001094  s :     0.001094
      pz      :     0.002698  p :     0.006633
      px      :     0.003270
      py      :     0.000666
      dz2     :    -0.000050  d :    -0.000082
      dxz     :    -0.000003
      dyz     :    -0.000008
      dx2y2   :    -0.000045
      dxy     :     0.000024
  7 H s       :    -0.013209  s :    -0.013209
      pz      :     0.000123  p :     0.003142
      px      :     0.003287
      py      :    -0.000267
  8 H s       :    -0.004282  s :    -0.004282
      pz      :     0.000089  p :     0.000201
      px      :     0.000105
      py      :     0.000008
  9 H s       :     0.004142  s :     0.004142
      pz      :    -0.000106  p :    -0.000147
      px      :     0.000004
      py      :    -0.000044
 10 H s       :     0.050005  s :     0.050005
      pz      :    -0.000408  p :    -0.000420
      px      :    -0.000109
      py      :     0.000096
 11 H s       :    -0.033598  s :    -0.033598
      pz      :     0.000952  p :     0.003736
      px      :     0.002359
      py      :     0.000425
 12 H s       :     0.012764  s :     0.012764
      pz      :    -0.000056  p :    -0.000185
      px      :     0.000009
      py      :    -0.000138
 13 H s       :     0.028775  s :     0.028775
      pz      :    -0.000003  p :    -0.000150
      px      :     0.000110
      py      :    -0.000256
 14 H s       :    -0.001954  s :    -0.001954
      pz      :     0.000012  p :     0.000087
      px      :     0.000029
      py      :     0.000046
 15 H s       :    -0.000856  s :    -0.000856
      pz      :     0.000019  p :     0.000014
      px      :    -0.000004
      py      :    -0.000001


                     *******************************
                     * LOEWDIN POPULATION ANALYSIS *
                     *******************************

-------------------------------------------
LOEWDIN ATOMIC CHARGES AND SPIN POPULATIONS
-------------------------------------------
   0 O :   -0.160005    0.448820
   1 O :   -0.120228   -0.055541
   2 C :    0.057740    0.020323
   3 C :   -0.055445   -0.013014
   4 C :    0.070413    0.530506
   5 C :   -0.049025   -0.012000
   6 C :   -0.046423    0.005192
   7 H :    0.054886    0.004750
   8 H :    0.018256   -0.001810
   9 H :    0.037949    0.002927
  10 H :    0.029708    0.036872
  11 H :    0.023785    0.001072
  12 H :    0.039175    0.008978
  13 H :    0.036512    0.024072
  14 H :    0.036815   -0.000808
  15 H :    0.025888   -0.000340

----------------------------------------------------
LOEWDIN REDUCED ORBITAL CHARGES AND SPIN POPULATIONS
----------------------------------------------------
CHARGE
  0 O s       :     3.638317  s :     3.638317
      pz      :     1.456392  p :     4.505038
      px      :     1.159187
      py      :     1.889460
      dz2     :     0.009556  d :     0.016649
      dxz     :     0.000642
      dyz     :     0.002072
      dx2y2   :     0.003423
      dxy     :     0.000957
  1 O s       :     3.650469  s :     3.650469
      pz      :     1.447367  p :     4.444063
      px      :     1.157839
      py      :     1.838857
      dz2     :     0.009883  d :     0.025697
      dxz     :     0.003863
      dyz     :     0.003848
      dx2y2   :     0.005966
      dxy     :     0.002137
  2 C s       :     2.867416  s :     2.867416
      pz      :     0.856864  p :     2.911095
      px      :     1.023737
      py      :     1.030493
      dz2     :     0.048894  d :     0.163749
      dxz     :     0.028921
      dyz     :     0.032341
      dx2y2   :     0.034637
      dxy     :     0.018957
  3 C s       :     2.848797  s :     2.848797
      pz      :     1.035670  p :     3.111315
      px      :     1.026717
      py      :     1.048928
      dz2     :     0.022869  d :     0.095333
      dxz     :     0.018925
      dyz     :     0.017247
      dx2y2   :     0.024312
      dxy     :     0.011980
  4 C s       :     2.934343  s :     2.934343
      pz      :     1.025457  p :     2.909458
      px      :     0.867489
      py      :     1.016512
      dz2     :     0.017389  d :     0.085787
      dxz     :     0.017221
      dyz     :     0.021878
      dx2y2   :     0.016066
      dxy     :     0.013233
  5 C s       :     2.842026  s :     2.842026
      pz      :     1.054066  p :     3.116480
      px      :     1.040329
      py      :     1.022086
      dz2     :     0.016052  d :     0.090519
      dxz     :     0.018349
      dyz     :     0.017033
      dx2y2   :     0.015944
      dxy     :     0.023141
  6 C s       :     2.852259  s :     2.852259
      pz      :     1.039679  p :     3.109517
      px      :     1.044824
      py      :     1.025014
      dz2     :     0.019661  d :     0.084648
      dxz     :     0.016866
      dyz     :     0.011762
      dx2y2   :     0.023315
      dxy     :     0.013044
  7 H s       :     0.762395  s :     0.762395
      pz      :     0.095455  p :     0.182719
      px      :     0.030148
      py      :     0.057116
  8 H s       :     0.913435  s :     0.913435
      pz      :     0.021579  p :     0.068309
      px      :     0.027724
      py      :     0.019007
  9 H s       :     0.893800  s :     0.893800
      pz      :     0.012904  p :     0.068251
      px      :     0.013481
      py      :     0.041865
 10 H s       :     0.903236  s :     0.903236
      pz      :     0.030255  p :     0.067056
      px      :     0.021810
      py      :     0.014991
 11 H s       :     0.901211  s :     0.901211
      pz      :     0.032684  p :     0.075004
      px      :     0.027065
      py      :     0.015254
 12 H s       :     0.893539  s :     0.893539
      pz      :     0.033515  p :     0.067286
      px      :     0.016527
      py      :     0.017244
 13 H s       :     0.896126  s :     0.896126
      pz      :     0.016728  p :     0.067362
      px      :     0.027446
      py      :     0.023189
 14 H s       :     0.893835  s :     0.893835
      pz      :     0.015306  p :     0.069350
      px      :     0.036795
      py      :     0.017249
 15 H s       :     0.906346  s :     0.906346
      pz      :     0.035349  p :     0.067766
      px      :     0.014497
      py      :     0.017920

SPIN
  0 O s       :     0.005101  s :     0.005101
      pz      :     0.003772  p :     0.443779
      px      :     0.434263
      py      :     0.005743
      dz2     :    -0.000011  d :    -0.000059
      dxz     :     0.000020
      dyz     :    -0.000044
      dx2y2   :    -0.000072
      dxy     :     0.000048
  1 O s       :     0.038161  s :     0.038161
      pz      :     0.012599  p :    -0.097578
      px      :    -0.127370
      py      :     0.017193
      dz2     :     0.000808  d :     0.003876
      dxz     :     0.000006
      dyz     :     0.000010
      dx2y2   :     0.002842
      dxy     :     0.000210
  2 C s       :     0.003007  s :     0.003007
      pz      :     0.002753  p :     0.018096
      px      :     0.012993
      py      :     0.002350
      dz2     :    -0.000820  d :    -0.000780
      dxz     :     0.000411
      dyz     :    -0.000032
      dx2y2   :    -0.000371
      dxy     :     0.000033
  3 C s       :    -0.003738  s :    -0.003738
      pz      :    -0.012269  p :    -0.022312
      px      :    -0.004744
      py      :    -0.005299
      dz2     :     0.005430  d :     0.013036
      dxz     :     0.006471
      dyz     :     0.000662
      dx2y2   :     0.000286
      dxy     :     0.000187
  4 C s       :     0.026160  s :     0.026160
      pz      :     0.091580  p :     0.507411
      px      :     0.351264
      py      :     0.064567
      dz2     :    -0.000780  d :    -0.003065
      dxz     :    -0.000609
      dyz     :    -0.000388
      dx2y2   :    -0.001003
      dxy     :    -0.000286
  5 C s       :    -0.003108  s :    -0.003108
      pz      :    -0.001970  p :    -0.018849
      px      :    -0.006097
      py      :    -0.010782
      dz2     :     0.000408  d :     0.009957
      dxz     :     0.000327
      dyz     :     0.002571
      dx2y2   :     0.001766
      dxy     :     0.004885
  6 C s       :     0.000634  s :     0.000634
      pz      :     0.001810  p :     0.004747
      px      :     0.002272
      py      :     0.000666
      dz2     :    -0.000123  d :    -0.000190
      dxz     :    -0.000006
      dyz     :    -0.000043
      dx2y2   :    -0.000093
      dxy     :     0.000075
  7 H s       :    -0.008082  s :    -0.008082
      pz      :     0.001529  p :     0.012833
      px      :     0.011302
      py      :     0.000002
  8 H s       :    -0.002745  s :    -0.002745
      pz      :     0.000081  p :     0.000935
      px      :     0.000743
      py      :     0.000111
  9 H s       :     0.003592  s :     0.003592
      pz      :    -0.000370  p :    -0.000665
      px      :    -0.000101
      py      :    -0.000193
 10 H s       :     0.037685  s :     0.037685
      pz      :    -0.000491  p :    -0.000813
      px      :    -0.000261
      py      :    -0.000061
 11 H s       :    -0.015038  s :    -0.015038
      pz      :     0.003635  p :     0.016110
      px      :     0.010459
      py      :     0.002015
 12 H s       :     0.009627  s :     0.009627
      pz      :    -0.000244  p :    -0.000648
      px      :    -0.000013
      py      :    -0.000392
 13 H s       :     0.024599  s :     0.024599
      pz      :    -0.000047  p :    -0.000527
      px      :    -0.000204
      py      :    -0.000276
 14 H s       :    -0.001130  s :    -0.001130
      pz      :     0.000100  p :     0.000322
      px      :     0.000083
      py      :     0.000139
 15 H s       :    -0.000418  s :    -0.000418
      pz      :     0.000088  p :     0.000078
      px      :     0.000017
      py      :    -0.000027


                      *****************************
                      * MAYER POPULATION ANALYSIS *
                      *****************************

  NA   - Mulliken gross atomic population
  ZA   - Total nuclear charge
  QA   - Mulliken gross atomic charge
  VA   - Mayer's total valence
  BVA  - Mayer's bonded valence
  FA   - Mayer's free valence

  ATOM       NA         ZA         QA         VA         BVA        FA
  0 O      8.2557     8.0000    -0.2557     2.0205     1.7829     0.2376
  1 O      8.3152     8.0000    -0.3152     2.0436     1.9846     0.0590
  2 C      6.0034     6.0000    -0.0034     3.9747     3.9741     0.0006
  3 C      5.9557     6.0000     0.0443     3.8380     3.8363     0.0016
  4 C      6.1355     6.0000    -0.1355     3.9561     3.6521     0.3039
  5 C      5.9732     6.0000     0.0268     3.9586     3.9572     0.0014
  6 C      5.9378     6.0000     0.0622     3.9617     3.9616     0.0000
  7 H      0.8307     1.0000     0.1693     1.0112     1.0108     0.0004
  8 H      0.9518     1.0000     0.0482     1.0038     1.0038     0.0000
  9 H      0.9390     1.0000     0.0610     0.9870     0.9870     0.0000
 10 H      0.9491     1.0000     0.0509     0.9759     0.9733     0.0026
 11 H      0.9502     1.0000     0.0498     0.9927     0.9915     0.0012
 12 H      0.9409     1.0000     0.0591     0.9797     0.9795     0.0002
 13 H      0.9535     1.0000     0.0465     0.9753     0.9744     0.0009
 14 H      0.9424     1.0000     0.0576     1.0016     1.0016     0.0000
 15 H      0.9660     1.0000     0.0340     0.9782     0.9782     0.0000

  Mayer bond orders larger than 0.100000
B(  0-O ,  1-O ) :   0.5925 B(  0-O ,  4-C ) :   0.1164 B(  0-O ,  7-H ) :   0.9825 
B(  1-O ,  2-C ) :   0.8850 B(  1-O ,  4-C ) :   0.4287 B(  2-C ,  3-C ) :   0.9907 
B(  2-C ,  6-C ) :   1.0445 B(  2-C ,  8-H ) :   0.9531 B(  3-C ,  4-C ) :   0.9910 
B(  3-C ,  9-H ) :   0.9420 B(  3-C , 10-H ) :   0.9310 B(  4-C ,  5-C ) :   1.0518 
B(  4-C , 11-H ) :   0.9832 B(  5-C ,  6-C ) :   1.0586 B(  5-C , 12-H ) :   0.9324 
B(  5-C , 13-H ) :   0.9155 B(  6-C , 14-H ) :   0.9279 B(  6-C , 15-H ) :   0.9369 



------------------
HIRSHFELD ANALYSIS
------------------

Total integrated alpha density =     28.000024211
Total integrated beta density  =     27.000022184

  ATOM     CHARGE      SPIN    
   0 O   -0.244190    0.433556
   1 O   -0.125976   -0.030317
   2 C    0.059943    0.018532
   3 C   -0.053505    0.022382
   4 C    0.049074    0.421096
   5 C   -0.045226    0.019959
   6 C   -0.048419    0.005980
   7 H    0.145265    0.011632
   8 H    0.035736   -0.000585
   9 H    0.035602    0.003954
  10 H    0.030053    0.034022
  11 H    0.042746    0.026623
  12 H    0.033527    0.009376
  13 H    0.029282    0.023647
  14 H    0.031671    0.000008
  15 H    0.024370    0.000138

  TOTAL  -0.000046    1.000002

-------
TIMINGS
-------

Total SCF time: 0 days 0 hours 0 min 6 sec 

Total time                  ....       6.857 sec
Sum of individual times     ....       6.718 sec  ( 98.0%)

Fock matrix formation       ....       5.922 sec  ( 86.4%)
  Split-RI-J                ....       0.490 sec  (  8.3% of F)
  Chain of spheres X        ....       4.258 sec  ( 71.9% of F)
  XC integration            ....       1.130 sec  ( 19.1% of F)
    Basis function eval.    ....       0.340 sec  ( 30.1% of XC)
    Density eval.           ....       0.318 sec  ( 28.1% of XC)
    XC-Functional eval.     ....       0.105 sec  (  9.3% of XC)
    XC-Potential eval.      ....       0.271 sec  ( 23.9% of XC)
Diagonalization             ....       0.088 sec  (  1.3%)
Density matrix formation    ....       0.006 sec  (  0.1%)
Population analysis         ....       0.175 sec  (  2.5%)
Initial guess               ....       0.010 sec  (  0.1%)
Orbital Transformation      ....       0.000 sec  (  0.0%)
Orbital Orthonormalization  ....       0.005 sec  (  0.1%)
DIIS solution               ....       0.056 sec  (  0.8%)
Grid generation             ....       0.463 sec  (  6.7%)

Maximum memory used throughout the entire SCF-calculation: 51.9 MB


-------------------------------------------------------------------------------
                          DFT DISPERSION CORRECTION                            
                                                                               
                              DFTD3 V3.1  Rev 1                                
                          USING Becke-Johnson damping                          
-------------------------------------------------------------------------------
The PBE0 functional is recognized
Active option DFTDOPT                   ...         4   

molecular C6(AA) [au] = 1929.262831 


            DFT-D V3
 parameters
 s6 scaling factor         :     1.0000 
 a1 scaling factor         :     0.4145 
 s8 scaling factor         :     1.2177 
 a2 scaling factor         :     4.8593 
 ad hoc parameters k1-k3   :    16.0000     1.3333    -4.0000 

 Edisp/kcal,au: -7.200963117827  -0.011475463953 
 E6   /kcal   :  -4.637458141 
 E8   /kcal   :  -2.563504977 
 % E8         :  35.599473774 

-------------------------   ----------------
Dispersion correction           -0.011475464
-------------------------   ----------------


-------------------------   --------------------
FINAL SINGLE POINT ENERGY      -345.561944630947
-------------------------   --------------------

                                *** OPTIMIZATION RUN DONE ***

                            ***************************************
                            *     ORCA property calculations      *
                            ***************************************

                                    ---------------------
                                    Active property flags
                                    ---------------------
   (+) Dipole Moment


------------------------------------------------------------------------------
                       ORCA ELECTRIC PROPERTIES CALCULATION
------------------------------------------------------------------------------

Dipole Moment Calculation                       ... on
Quadrupole Moment Calculation                   ... off
Polarizability Calculation                      ... off
GBWName                                         ... TS_vdwLSy_ll_ad_1-4_0-1_conf164_opt_orca.gbw
Electron density                                ... TS_vdwLSy_ll_ad_1-4_0-1_conf164_opt_orca.scfp
The origin for moment calculation is the CENTER OF MASS  = ( 0.298566, -0.931845  0.272703)

-------------
DIPOLE MOMENT
-------------
                                X             Y             Z
Electronic contribution:      2.23684      -2.47557       1.75083
Nuclear contribution   :     -3.08843       2.71976      -1.75395
                        -----------------------------------------
Total Dipole Moment    :     -0.85159       0.24419      -0.00312
                        -----------------------------------------
Magnitude (a.u.)       :      0.88591
Magnitude (Debye)      :      2.25181



--------------------
Rotational spectrum 
--------------------
 
Rotational constants in cm-1:     0.146344     0.077474     0.070067 
Rotational constants in MHz :  4387.281674  2322.623613  2100.552439 

 Dipole components along the rotational axes: 
x,y,z [a.u.] :     0.859115    -0.093674     0.194900 
x,y,z [Debye]:     2.183698    -0.238100     0.495395 

 

Timings for individual modules:

Sum of individual times         ...       67.580 sec (=   1.126 min)
GTO integral calculation        ...        2.559 sec (=   0.043 min)   3.8 %
SCF iterations                  ...       52.939 sec (=   0.882 min)  78.3 %
SCF Gradient evaluation         ...       11.903 sec (=   0.198 min)  17.6 %
Geometry relaxation             ...        0.180 sec (=   0.003 min)   0.3 %
                             ****ORCA TERMINATED NORMALLY****
TOTAL RUN TIME: 0 days 0 hours 1 minutes 9 seconds 421 msec
