      -----------------------------------------------------------      
     |                   =====================                   |     
     |                           x T B                           |     
     |                   =====================                   |     
     |                         S. Grimme                         |     
     |          Mulliken Center for Theoretical Chemistry        |     
     |                    University of Bonn                     |     
      -----------------------------------------------------------      

   * xtb version 6.6.1 (8d0f1dd) compiled by 'conda@1efc2f54142f' on 2023-08-01

   xtb is free software: you can redistribute it and/or modify it under
   the terms of the GNU Lesser General Public License as published by
   the Free Software Foundation, either version 3 of the License, or
   (at your option) any later version.
   
   xtb is distributed in the hope that it will be useful,
   but WITHOUT ANY WARRANTY; without even the implied warranty of
   MERCHANTABILITY or FITNESS FOR A PARTICULAR PURPOSE.  See the
   GNU Lesser General Public License for more details.
   
   Cite this work as:
   * C. Bannwarth, E. Caldeweyher, S. Ehlert, A. Hansen, P. Pracht,
     J. Seibert, S. Spicher, S. Grimme, WIREs Comput. Mol. Sci., 2020, 11,
     e01493. DOI: 10.1002/wcms.1493
   
   for GFN2-xTB:
   * C. Bannwarth, S. Ehlert and S. Grimme., J. Chem. Theory Comput., 2019,
     15, 1652-1671. DOI: 10.1021/acs.jctc.8b01176
   for GFN1-xTB:
   * S. Grimme, C. Bannwarth, P. Shushkov, J. Chem. Theory Comput., 2017,
     13, 1989-2009. DOI: 10.1021/acs.jctc.7b00118
   for GFN0-xTB:
   * P. Pracht, E. Caldeweyher, S. Ehlert, S. Grimme, ChemRxiv, 2019, preprint.
     DOI: 10.26434/chemrxiv.8326202.v1
   for GFN-FF:
   * S. Spicher and S. Grimme, Angew. Chem. Int. Ed., 2020, 59, 15665-15673.
     DOI: 10.1002/anie.202004239
   
   for ALPB and GBSA implicit solvation:
   * S. Ehlert, M. Stahn, S. Spicher, S. Grimme, J. Chem. Theory Comput.,
     2021, 17, 4250-4261. DOI: 10.1021/acs.jctc.1c00471
   
   for DFT-D4:
   * E. Caldeweyher, C. Bannwarth and S. Grimme, J. Chem. Phys., 2017,
     147, 034112. DOI: 10.1063/1.4993215
   * E. Caldeweyher, S. Ehlert, A. Hansen, H. Neugebauer, S. Spicher,
     C. Bannwarth and S. Grimme, J. Chem. Phys., 2019, 150, 154122.
     DOI: 10.1063/1.5090222
   * E. Caldeweyher, J.-M. Mewes, S. Ehlert and S. Grimme, Phys. Chem. Chem. Phys.
     2020, 22, 8499-8512. DOI: 10.1039/D0CP00502A
   
   for sTDA-xTB:
   * S. Grimme and C. Bannwarth, J. Chem. Phys., 2016, 145, 054103.
     DOI: 10.1063/1.4959605
   
   in the mass-spec context:
   * V. Asgeirsson, C. Bauer and S. Grimme, Chem. Sci., 2017, 8, 4879.
     DOI: 10.1039/c7sc00601b
   * J. Koopman and S. Grimme, ACS Omega 2019, 4, 12, 15120-15133.
     DOI: 10.1021/acsomega.9b02011
   
   for metadynamics refer to:
   * S. Grimme, J. Chem. Theory Comput., 2019, 155, 2847-2862
     DOI: 10.1021/acs.jctc.9b00143
   
   for SPH calculations refer to:
   * S. Spicher and S. Grimme, J. Chem. Theory Comput., 2021, 17, 1701-1714
     DOI: 10.1021/acs.jctc.0c01306
   
   with help from (in alphabetical order)
   P. Atkinson, C. Bannwarth, F. Bohle, G. Brandenburg, E. Caldeweyher
   M. Checinski, S. Dohm, S. Ehlert, S. Ehrlich, I. Gerasimov, C. Hölzer
   A. Katbashev, J. Koopman, C. Lavigne, S. Lehtola, F. März, M. Müller,
   F. Musil, H. Neugebauer, J. Pisarek, C. Plett, P. Pracht, F. Pultar,
   J. Seibert, P. Shushkov, S. Spicher, M. Stahn, M. Steiner, T. Strunk,
   J. Stückrath, T. Rose, and J. Unsleber
   
 * started run on 2025/05/23 at 13:15:48.629     

           -------------------------------------------------
          |                Calculation Setup                |
           -------------------------------------------------

          program call               : /gpfs/fs1/home/copan/code/autode-practice/.pixi/envs/default/bin/xtb TS_vdwLSy_ll_ad_1-4_0-1_conf0_opt_xtb.xyz --chrg 0 --uhf 1 --opt --input xcontrol_TS_vdwLSy_ll_ad_1-4_0-1_conf0_opt_xtb
          hostname                   : csed-0021
          coordinate file            : TS_vdwLSy_ll_ad_1-4_0-1_conf0_opt_xtb.xyz
          omp threads                :                     4

   ID    Z sym.   atoms
    1    8 O      1, 2
    2    6 C      3-7
    3    1 H      8-16
constraining bond 1 2 to    1.7150000 Å, actual value:    1.7149899 Å
constraining bond 2 5 to    2.0032000 Å, actual value:    2.0031811 Å

molecular fragmentation (1/2 indicates fragments):
1222222122222222
# atoms in fragment 1/2:     2    14
 fragment masses (1/2) :       17.01       84.12
CMA distance (Bohr)    :   5.575
constraining FC (au)   :  2.0000

           -------------------------------------------------
          |                 G F N 2 - x T B                 |
           -------------------------------------------------

        Reference                      10.1021/acs.jctc.8b01176
      * Hamiltonian:
        H0-scaling (s, p, d)           1.850000    2.230000    2.230000
        zeta-weighting                 0.500000
      * Dispersion:
        s8                             2.700000
        a1                             0.520000
        a2                             5.000000
        s9                             5.000000
      * Repulsion:
        kExp                           1.500000    1.000000
        rExp                           1.000000
      * Coulomb:
        alpha                          2.000000
        third order                    shell-resolved
        anisotropic                    true
        a3                             3.000000
        a5                             4.000000
        cn-shift                       1.200000
        cn-exp                         4.000000
        max-rad                        5.000000


          ...................................................
          :                      SETUP                      :
          :.................................................:
          :  # basis functions                  37          :
          :  # atomic orbitals                  37          :
          :  # shells                           23          :
          :  # electrons                        41          :
          :  max. iterations                   250          :
          :  Hamiltonian                  GFN2-xTB          :
          :  restarted?                      false          :
          :  GBSA solvation                  false          :
          :  PC potential                    false          :
          :  electronic temp.          300.0000000     K    :
          :  accuracy                    1.0000000          :
          :  -> integral cutoff          0.2500000E+02      :
          :  -> integral neglect         0.1000000E-07      :
          :  -> SCF convergence          0.1000000E-05 Eh   :
          :  -> wf. convergence          0.1000000E-03 e    :
          :  Broyden damping             0.4000000          :
          ...................................................

 iter      E             dE          RMSdq      gap      omega  full diag
   1    -23.2674233 -0.232674E+02  0.444E+00    2.34       0.0  T
   2    -23.0401770  0.227246E+00  0.384E+00    1.76       1.0  T
   3    -23.3046684 -0.264491E+00  0.293E+00    2.35       1.0  T
   4    -23.3948129 -0.901445E-01  0.105E+00    1.81       1.0  T
   5    -23.4105931 -0.157801E-01  0.380E-01    1.66       1.0  T
   6    -23.4114194 -0.826281E-03  0.221E-01    1.64       1.0  T
   7    -23.4113058  0.113555E-03  0.856E-02    1.65       1.0  T
   8    -23.4114360 -0.130232E-03  0.171E-02    1.65       1.5  T
   9    -23.4114365 -0.479763E-06  0.817E-03    1.65       3.1  T
  10    -23.4114370 -0.438407E-06  0.463E-03    1.65       5.4  T
  11    -23.4114374 -0.398118E-06  0.163E-03    1.65      15.3  T
  12    -23.4114374 -0.111425E-07  0.896E-04    1.65      27.9  T
  13    -23.4114374 -0.115111E-07  0.348E-04    1.65      71.8  T

   *** convergence criteria satisfied after 13 iterations ***

         #    Occupation            Energy/Eh            Energy/eV
      -------------------------------------------------------------
         1        2.0000           -0.6964286             -18.9508
       ...           ...                  ...                  ...
        15        2.0000           -0.4686981             -12.7539
        16        2.0000           -0.4606479             -12.5349
        17        2.0000           -0.4554477             -12.3934
        18        2.0000           -0.4328219             -11.7777
        19        2.0000           -0.4153952             -11.3035
        20        2.0000           -0.3843452             -10.4586
        21        1.0000           -0.3312888              -9.0148 (HOMO)
        22                         -0.2707216              -7.3667 (LUMO)
        23                          0.0254456               0.6924
        24                          0.0311428               0.8474
        25                          0.0460800               1.2539
        26                          0.0780697               2.1244
       ...                                ...                  ...
        37                          0.3528589               9.6018
      -------------------------------------------------------------
                  HL-Gap            0.0605671 Eh            1.6481 eV
             Fermi-level           -0.3294111 Eh           -8.9637 eV

 SCC (total)                   0 d,  0 h,  0 min,  0.010 sec
 SCC setup                      ...        0 min,  0.000 sec (  1.673%)
 Dispersion                     ...        0 min,  0.000 sec (  1.140%)
 classical contributions        ...        0 min,  0.000 sec (  1.074%)
 integral evaluation            ...        0 min,  0.001 sec (  6.007%)
 iterations                     ...        0 min,  0.007 sec ( 74.430%)
 molecular gradient             ...        0 min,  0.001 sec ( 13.691%)
 printout                       ...        0 min,  0.000 sec (  1.815%)

         :::::::::::::::::::::::::::::::::::::::::::::::::::::
         ::                     SUMMARY                     ::
         :::::::::::::::::::::::::::::::::::::::::::::::::::::
         :: total energy             -23.188231367529 Eh    ::
         :: gradient norm              0.093545581247 Eh/a0 ::
         :: HOMO-LUMO gap              1.648115946085 eV    ::
         ::.................................................::
         :: SCC energy               -23.411437374597 Eh    ::
         :: -> isotropic ES            0.055551958546 Eh    ::
         :: -> anisotropic ES         -0.001806074343 Eh    ::
         :: -> anisotropic XC          0.006608838289 Eh    ::
         :: -> dispersion             -0.009846560368 Eh    ::
         :: repulsion energy           0.223180573855 Eh    ::
         :: add. restraining           0.000000003284 Eh    ::
         :: total charge               0.000000000000 e     ::
         :::::::::::::::::::::::::::::::::::::::::::::::::::::

      ----------------------------------------------------------- 
     |                   =====================                   |
     |                        A N C O P T                        |
     |                   =====================                   |
     |               Approximate Normal Coordinate               |
     |                Rational Function Optimizer                |
      ----------------------------------------------------------- 

          ...................................................
          :                      SETUP                      :
          :.................................................:
          :   optimization level            normal          :
          :   max. optcycles                   200          :
          :   ANC micro-cycles                  20          :
          :   degrees of freedom                42          :
          :.................................................:
          :   RF solver                   davidson          :
          :   write xtbopt.log                true          :
          :   linear?                        false          :
          :   energy convergence         0.5000000E-05 Eh   :
          :   grad. convergence          0.1000000E-02 Eh/α :
          :   maxmium RF displ.          1.0000000          :
          :   Hlow (freq-cutoff)         0.1000000E-01      :
          :   Hmax (freq-cutoff)         5.0000000          :
          :   S6 in model hess.         20.0000000          :
          ...................................................

generating ANC from model Hessian ...
Using Lindh-Hessian (1995)
 Shifting diagonal of input Hessian by    9.9537523389704400E-003
 Lowest  eigenvalues of input Hessian
    0.000000    0.000000    0.000000    0.000000    0.000000    0.000000
    0.010000    0.012981    0.016872    0.024056    0.028549    0.044352
    0.049108    0.054740    0.057842    0.059183    0.060942    0.064639
 Highest eigenvalues
    1.284675    1.314904    1.331099    1.371333    5.202004   12.006594


........................................................................
.............................. CYCLE    1 ..............................
........................................................................

 iter      E             dE          RMSdq      gap      omega  full diag
   1    -23.4114374 -0.234114E+02  0.222E-04    1.65       0.0  T
   2    -23.4114374  0.215940E-08  0.378E-04    1.65      66.1  T
   3    -23.4114374 -0.324407E-08  0.307E-05    1.65     814.4  T
     SCC iter.                  ...        0 min,  0.002 sec
     gradient                   ...        0 min,  0.001 sec
 * total energy  :   -23.1882314 Eh     change       -0.1596529E-08 Eh
   gradient norm :     0.0935428 Eh/α   predicted     0.0000000E+00 (-100.00%)
   displ. norm   :     0.5052184 α      lambda       -0.3450379E-01
   maximum displ.:     0.2248713 α      in ANC's #17, #6, #19, ...

........................................................................
.............................. CYCLE    2 ..............................
........................................................................

 iter      E             dE          RMSdq      gap      omega  full diag
   1    -23.4317867 -0.234318E+02  0.724E-01    1.86       0.0  T
   2    -23.4291070  0.267965E-02  0.636E-01    1.92       1.0  T
   3    -23.4360217 -0.691469E-02  0.303E-01    1.90       1.0  T
   4    -23.4370397 -0.101800E-02  0.126E-01    1.88       1.0  T
   5    -23.4370637 -0.240049E-04  0.161E-02    1.88       1.5  T
   6    -23.4370645 -0.730900E-06  0.871E-03    1.88       2.9  T
   7    -23.4370646 -0.968889E-07  0.350E-03    1.88       7.1  T
   8    -23.4370646 -0.291359E-07  0.854E-04    1.88      29.3  T
   9    -23.4370646 -0.760611E-08  0.425E-04    1.88      58.9  T
     SCC iter.                  ...        0 min,  0.004 sec
     gradient                   ...        0 min,  0.001 sec
 * total energy  :   -23.2122785 Eh     change       -0.2404712E-01 Eh
   gradient norm :     0.1540055 Eh/α   predicted    -0.2165536E-01 (  -9.95%)
   displ. norm   :     0.4562926 α      lambda       -0.2071546E-01
   maximum displ.:     0.2243052 α      in ANC's #6, #17, #3, ...

........................................................................
.............................. CYCLE    3 ..............................
........................................................................

 iter      E             dE          RMSdq      gap      omega  full diag
   1    -23.4421369 -0.234421E+02  0.574E-01    2.03       0.0  T
   2    -23.4398297  0.230722E-02  0.573E-01    1.95       1.0  T
   3    -23.4451802 -0.535049E-02  0.228E-01    2.00       1.0  T
   4    -23.4453671 -0.186862E-03  0.617E-02    1.97       1.0  T
   5    -23.4453855 -0.184024E-04  0.119E-02    1.98       2.1  T
   6    -23.4453861 -0.624927E-06  0.513E-03    1.98       4.9  T
   7    -23.4453861 -0.241899E-07  0.224E-03    1.98      11.2  T
   8    -23.4453861 -0.125547E-07  0.400E-04    1.98      62.5  T
   9    -23.4453861 -0.539394E-09  0.174E-04    1.98     143.4  T
     SCC iter.                  ...        0 min,  0.004 sec
     gradient                   ...        0 min,  0.001 sec
 * total energy  :   -23.2222777 Eh     change       -0.9999249E-02 Eh
   gradient norm :     0.1769412 Eh/α   predicted    -0.1251425E-01 (  25.15%)
   displ. norm   :     0.4750184 α      lambda       -0.1437562E-01
   maximum displ.:     0.3282005 α      in ANC's #2, #3, #4, ...

........................................................................
.............................. CYCLE    4 ..............................
........................................................................

 iter      E             dE          RMSdq      gap      omega  full diag
   1    -23.4539918 -0.234540E+02  0.477E-01    2.15       0.0  T
   2    -23.4536199  0.371903E-03  0.347E-01    2.24       1.0  T
   3    -23.4545471 -0.927176E-03  0.238E-01    2.18       1.0  T
   4    -23.4550629 -0.515817E-03  0.421E-02    2.20       1.0  T
   5    -23.4550740 -0.111159E-04  0.117E-02    2.20       2.1  T
   6    -23.4550745 -0.443247E-06  0.454E-03    2.20       5.5  T
   7    -23.4550745 -0.164855E-07  0.139E-03    2.20      18.0  T
   8    -23.4550745 -0.903191E-08  0.460E-04    2.20      54.3  T
   9    -23.4550745 -0.755087E-09  0.235E-04    2.20     106.5  T
     SCC iter.                  ...        0 min,  0.004 sec
     gradient                   ...        0 min,  0.001 sec
 * total energy  :   -23.2248722 Eh     change       -0.2594502E-02 Eh
   gradient norm :     0.2848817 Eh/α   predicted    -0.8809681E-02 ( 239.55%)
   displ. norm   :     0.3497680 α      lambda       -0.2149243E-01
   maximum displ.:     0.1681983 α      in ANC's #3, #2, #1, ...

........................................................................
.............................. CYCLE    5 ..............................
........................................................................

 iter      E             dE          RMSdq      gap      omega  full diag
   1    -23.4710750 -0.234711E+02  0.523E-01    2.18       0.0  T
   2    -23.4715897 -0.514699E-03  0.325E-01    2.09       1.0  T
   3    -23.4716671 -0.773741E-04  0.216E-01    2.14       1.0  T
   4    -23.4720403 -0.373238E-03  0.124E-01    2.11       1.0  T
   5    -23.4722114 -0.171131E-03  0.176E-02    2.11       1.4  T
   6    -23.4722124 -0.956111E-06  0.833E-03    2.11       3.0  T
   7    -23.4722125 -0.118475E-06  0.150E-03    2.11      16.7  T
   8    -23.4722125 -0.270856E-08  0.559E-04    2.11      44.8  T
   9    -23.4722125 -0.698531E-09  0.170E-04    2.11     147.1  T
     SCC iter.                  ...        0 min,  0.004 sec
     gradient                   ...        0 min,  0.001 sec
 * total energy  :   -23.2173522 Eh     change        0.7520058E-02 Eh
   gradient norm :     0.2106049 Eh/α   predicted    -0.1206088E-01 (-260.38%)
   displ. norm   :     0.3234439 α      lambda       -0.3364811E-01
   maximum displ.:     0.1644597 α      in ANC's #2, #18, #3, ...

........................................................................
.............................. CYCLE    6 ..............................
........................................................................

 iter      E             dE          RMSdq      gap      omega  full diag
   1    -23.4546451 -0.234546E+02  0.522E-01    2.07       0.0  T
   2    -23.4543630  0.282108E-03  0.324E-01    2.00       1.0  T
   3    -23.4552918 -0.928793E-03  0.269E-01    2.07       1.0  T
   4    -23.4561496 -0.857776E-03  0.698E-02    2.03       1.0  T
   5    -23.4561595 -0.990367E-05  0.199E-02    2.03       1.3  T
   6    -23.4561605 -0.104074E-05  0.826E-03    2.03       3.0  T
   7    -23.4561606 -0.793734E-07  0.317E-03    2.03       7.9  T
   8    -23.4561606 -0.405244E-07  0.945E-04    2.03      26.5  T
   9    -23.4561606 -0.374435E-08  0.465E-04    2.03      53.7  T
     SCC iter.                  ...        0 min,  0.004 sec
     gradient                   ...        0 min,  0.001 sec
 * total energy  :   -23.2277312 Eh     change       -0.1037897E-01 Eh
   gradient norm :     0.1743462 Eh/α   predicted    -0.1858411E-01 (  79.06%)
   displ. norm   :     0.1796841 α      lambda       -0.7208189E-02
   maximum displ.:     0.0957840 α      in ANC's #4, #2, #7, ...

........................................................................
.............................. CYCLE    7 ..............................
........................................................................

 iter      E             dE          RMSdq      gap      omega  full diag
   1    -23.4607014 -0.234607E+02  0.232E-01    2.11       0.0  T
   2    -23.4605604  0.140986E-03  0.186E-01    2.17       1.0  T
   3    -23.4610520 -0.491640E-03  0.100E-01    2.14       1.0  T
   4    -23.4611198 -0.677832E-04  0.253E-02    2.15       1.0  T
   5    -23.4611227 -0.287044E-05  0.566E-03    2.15       4.4  T
   6    -23.4611228 -0.947134E-07  0.233E-03    2.15      10.7  T
   7    -23.4611228 -0.558818E-08  0.933E-04    2.15      26.8  T
   8    -23.4611228 -0.312928E-08  0.287E-04    2.15      87.1  T
     SCC iter.                  ...        0 min,  0.004 sec
     gradient                   ...        0 min,  0.001 sec
 * total energy  :   -23.2323387 Eh     change       -0.4607554E-02 Eh
   gradient norm :     0.0370367 Eh/α   predicted    -0.3720455E-02 ( -19.25%)
   displ. norm   :     0.2941228 α      lambda       -0.3453030E-02
   maximum displ.:     0.2196547 α      in ANC's #3, #4, #1, ...

........................................................................
.............................. CYCLE    8 ..............................
........................................................................

 iter      E             dE          RMSdq      gap      omega  full diag
   1    -23.4633100 -0.234633E+02  0.239E-01    2.25       0.0  T
   2    -23.4632840  0.259891E-04  0.168E-01    2.28       1.0  T
   3    -23.4631670  0.116946E-03  0.129E-01    2.25       1.0  T
   4    -23.4634072 -0.240115E-03  0.109E-02    2.27       2.3  T
   5    -23.4634079 -0.768720E-06  0.498E-03    2.27       5.0  T
   6    -23.4634080 -0.657944E-07  0.209E-03    2.27      12.0  T
   7    -23.4634080 -0.149336E-07  0.812E-04    2.27      30.8  T
   8    -23.4634080 -0.301516E-08  0.467E-04    2.27      53.5  T
     SCC iter.                  ...        0 min,  0.004 sec
     gradient                   ...        0 min,  0.001 sec
 * total energy  :   -23.2333712 Eh     change       -0.1032490E-02 Eh
   gradient norm :     0.1704626 Eh/α   predicted    -0.1875886E-02 (  81.69%)
   displ. norm   :     0.0943547 α      lambda       -0.3033282E-02
   maximum displ.:     0.0523962 α      in ANC's #2, #1, #7, ...

........................................................................
.............................. CYCLE    9 ..............................
........................................................................

 iter      E             dE          RMSdq      gap      omega  full diag
   1    -23.4669794 -0.234670E+02  0.106E-01    2.28       0.0  T
   2    -23.4669437  0.357166E-04  0.102E-01    2.25       1.0  T
   3    -23.4670945 -0.150857E-03  0.416E-02    2.27       1.0  T
   4    -23.4670972 -0.261802E-05  0.105E-02    2.26       2.4  T
   5    -23.4670978 -0.677881E-06  0.247E-03    2.26      10.1  T
   6    -23.4670978 -0.789725E-08  0.907E-04    2.26      27.6  T
   7    -23.4670978 -0.111888E-08  0.294E-04    2.26      85.0  T
     SCC iter.                  ...        0 min,  0.003 sec
     gradient                   ...        0 min,  0.001 sec
 * total energy  :   -23.2350801 Eh     change       -0.1708912E-02 Eh
   gradient norm :     0.0549635 Eh/α   predicted    -0.1530143E-02 ( -10.46%)
   displ. norm   :     0.1608917 α      lambda       -0.1433082E-02
   maximum displ.:     0.0864317 α      in ANC's #3, #1, #31, ...

........................................................................
.............................. CYCLE   10 ..............................
........................................................................

 iter      E             dE          RMSdq      gap      omega  full diag
   1    -23.4680457 -0.234680E+02  0.122E-01    2.31       0.0  T
   2    -23.4680438  0.181573E-05  0.795E-02    2.30       1.0  T
   3    -23.4680356  0.822037E-05  0.647E-02    2.31       1.0  T
   4    -23.4680853 -0.497177E-04  0.946E-03    2.30       2.6  T
   5    -23.4680859 -0.588648E-06  0.255E-03    2.31       9.8  T
   6    -23.4680859 -0.437828E-08  0.937E-04    2.31      26.7  T
   7    -23.4680859 -0.264133E-08  0.323E-04    2.31      77.4  T
     SCC iter.                  ...        0 min,  0.003 sec
     gradient                   ...        0 min,  0.001 sec
 * total energy  :   -23.2360826 Eh     change       -0.1002456E-02 Eh
   gradient norm :     0.0163110 Eh/α   predicted    -0.7350895E-03 ( -26.67%)
   displ. norm   :     0.2133308 α      lambda       -0.1026115E-02
   maximum displ.:     0.1444490 α      in ANC's #3, #2, #4, ...

........................................................................
.............................. CYCLE   11 ..............................
........................................................................

 iter      E             dE          RMSdq      gap      omega  full diag
   1    -23.4683807 -0.234684E+02  0.135E-01    2.37       0.0  T
   2    -23.4683819 -0.124036E-05  0.853E-02    2.38       1.0  T
   3    -23.4683212  0.607417E-04  0.589E-02    2.37       1.0  T
   4    -23.4683904 -0.692327E-04  0.666E-03    2.38       3.8  T
   5    -23.4683908 -0.397208E-06  0.308E-03    2.38       8.1  T
   6    -23.4683908 -0.217819E-07  0.103E-03    2.38      24.3  T
   7    -23.4683908 -0.487597E-08  0.459E-04    2.38      54.5  T
   8    -23.4683908 -0.905146E-09  0.284E-04    2.38      88.0  T
     SCC iter.                  ...        0 min,  0.004 sec
     gradient                   ...        0 min,  0.001 sec
 * total energy  :   -23.2366161 Eh     change       -0.5335638E-03 Eh
   gradient norm :     0.0423625 Eh/α   predicted    -0.5364073E-03 (   0.53%)
   displ. norm   :     0.0867841 α      lambda       -0.3633425E-03
   maximum displ.:     0.0803382 α      in ANC's #1, #31, #4, ...

........................................................................
.............................. CYCLE   12 ..............................
........................................................................

 iter      E             dE          RMSdq      gap      omega  full diag
   1    -23.4681005 -0.234681E+02  0.574E-02    2.40       0.0  T
   2    -23.4680990  0.154266E-05  0.390E-02    2.39       1.0  T
   3    -23.4681053 -0.631045E-05  0.289E-02    2.40       1.0  T
   4    -23.4681131 -0.783560E-05  0.330E-03    2.40       7.6  T
   5    -23.4681132 -0.575967E-07  0.131E-03    2.40      19.1  T
   6    -23.4681132 -0.243864E-08  0.537E-04    2.40      46.5  T
   7    -23.4681132 -0.483222E-09  0.160E-04    2.40     156.5  T
     SCC iter.                  ...        0 min,  0.003 sec
     gradient                   ...        0 min,  0.001 sec
 * total energy  :   -23.2368513 Eh     change       -0.2351703E-03 Eh
   gradient norm :     0.0166829 Eh/α   predicted    -0.1830388E-03 ( -22.17%)
   displ. norm   :     0.1249300 α      lambda       -0.9032766E-03
   maximum displ.:     0.0643016 α      in ANC's #6, #1, #18, ...

........................................................................
.............................. CYCLE   13 ..............................
........................................................................

 iter      E             dE          RMSdq      gap      omega  full diag
   1    -23.4721981 -0.234722E+02  0.110E-01    2.45       0.0  T
   2    -23.4722027 -0.457462E-05  0.669E-02    2.45       1.0  T
   3    -23.4721947  0.803365E-05  0.235E-02    2.46       1.1  T
   4    -23.4722046 -0.990175E-05  0.770E-03    2.45       3.2  T
   5    -23.4722051 -0.522000E-06  0.368E-03    2.45       6.8  T
   6    -23.4722051 -0.369464E-07  0.962E-04    2.45      26.0  T
   7    -23.4722051 -0.157488E-08  0.356E-04    2.45      70.3  T
     SCC iter.                  ...        0 min,  0.003 sec
     gradient                   ...        0 min,  0.001 sec
 * total energy  :   -23.2368094 Eh     change        0.4189334E-04 Eh
   gradient norm :     0.0516419 Eh/α   predicted    -0.4586876E-03 (*******%)
   displ. norm   :     0.2823489 α      lambda       -0.1553999E-02
   maximum displ.:     0.2403918 α      in ANC's #1, #3, #6, ...

........................................................................
.............................. CYCLE   14 ..............................
........................................................................

 iter      E             dE          RMSdq      gap      omega  full diag
   1    -23.4656169 -0.234656E+02  0.202E-01    2.48       0.0  T
   2    -23.4656413 -0.243285E-04  0.117E-01    2.49       1.0  T
   3    -23.4656296  0.117127E-04  0.483E-02    2.49       1.0  T
   4    -23.4656402 -0.106399E-04  0.216E-02    2.48       1.2  T
   5    -23.4656491 -0.888093E-05  0.598E-03    2.49       4.2  T
   6    -23.4656491 -0.420907E-07  0.199E-03    2.49      12.6  T
   7    -23.4656491 -0.105141E-07  0.852E-04    2.49      29.4  T
   8    -23.4656491 -0.340802E-08  0.342E-04    2.49      73.2  T
     SCC iter.                  ...        0 min,  0.004 sec
     gradient                   ...        0 min,  0.001 sec
 * total energy  :   -23.2372250 Eh     change       -0.4155502E-03 Eh
   gradient norm :     0.0346187 Eh/α   predicted    -0.8389269E-03 ( 101.88%)
   displ. norm   :     0.1937264 α      lambda       -0.1282487E-02
   maximum displ.:     0.1652325 α      in ANC's #1, #6, #3, ...

........................................................................
.............................. CYCLE   15 ..............................
........................................................................

 iter      E             dE          RMSdq      gap      omega  full diag
   1    -23.4705180 -0.234705E+02  0.148E-01    2.44       0.0  T
   2    -23.4705378 -0.197899E-04  0.840E-02    2.45       1.0  T
   3    -23.4705053  0.324162E-04  0.625E-02    2.43       1.0  T
   4    -23.4705485 -0.431091E-04  0.186E-02    2.45       1.3  T
   5    -23.4705535 -0.507687E-05  0.464E-03    2.44       5.4  T
   6    -23.4705535 -0.145972E-07  0.158E-03    2.44      15.8  T
   7    -23.4705536 -0.622477E-08  0.503E-04    2.44      49.7  T
   8    -23.4705536 -0.116236E-08  0.163E-04    2.44     153.1  T
     SCC iter.                  ...        0 min,  0.004 sec
     gradient                   ...        0 min,  0.001 sec
 * total energy  :   -23.2375161 Eh     change       -0.2911529E-03 Eh
   gradient norm :     0.0059423 Eh/α   predicted    -0.6653064E-03 ( 128.51%)
   displ. norm   :     0.0902923 α      lambda       -0.2403624E-03
   maximum displ.:     0.0616875 α      in ANC's #1, #2, #6, ...

........................................................................
.............................. CYCLE   16 ..............................
........................................................................

 iter      E             dE          RMSdq      gap      omega  full diag
   1    -23.4700472 -0.234700E+02  0.548E-02    2.45       0.0  T
   2    -23.4700481 -0.943219E-06  0.335E-02    2.45       1.0  T
   3    -23.4700446  0.351544E-05  0.152E-02    2.46       1.6  T
   4    -23.4700485 -0.386281E-05  0.398E-03    2.45       6.3  T
   5    -23.4700487 -0.269184E-06  0.112E-03    2.45      22.4  T
   6    -23.4700487 -0.770207E-09  0.398E-04    2.45      62.9  T
   7    -23.4700487 -0.417899E-09  0.116E-04    2.45     216.0  T
     SCC iter.                  ...        0 min,  0.003 sec
     gradient                   ...        0 min,  0.001 sec
 * total energy  :   -23.2377357 Eh     change       -0.2196111E-03 Eh
   gradient norm :     0.0074286 Eh/α   predicted    -0.1211633E-03 ( -44.83%)
   displ. norm   :     0.4240080 α      lambda       -0.1001146E-02
   maximum displ.:     0.2673304 α      in ANC's #1, #2, #18, ...

........................................................................
.............................. CYCLE   17 ..............................
........................................................................

 iter      E             dE          RMSdq      gap      omega  full diag
   1    -23.4602857 -0.234603E+02  0.277E-01    2.50       0.0  T
   2    -23.4603416 -0.559562E-04  0.159E-01    2.51       1.0  T
   3    -23.4603313  0.103037E-04  0.647E-02    2.51       1.0  T
   4    -23.4603397 -0.836192E-05  0.272E-02    2.50       1.0  T
   5    -23.4603544 -0.146664E-04  0.751E-03    2.51       3.3  T
   6    -23.4603545 -0.823368E-07  0.301E-03    2.51       8.3  T
   7    -23.4603545 -0.191515E-07  0.100E-03    2.51      25.0  T
   8    -23.4603545 -0.433010E-08  0.395E-04    2.51      63.3  T
   9    -23.4603545 -0.769283E-09  0.225E-04    2.51     111.1  T
     SCC iter.                  ...        0 min,  0.004 sec
     gradient                   ...        0 min,  0.001 sec
 * total energy  :   -23.2356256 Eh     change        0.2110127E-02 Eh
   gradient norm :     0.0693058 Eh/α   predicted    -0.5905546E-03 (-127.99%)
   displ. norm   :     0.2980489 α      lambda       -0.6625410E-02
   maximum displ.:     0.2083335 α      in ANC's #1, #2, #18, ...

........................................................................
.............................. CYCLE   18 ..............................
........................................................................

 iter      E             dE          RMSdq      gap      omega  full diag
   1    -23.4699645 -0.234700E+02  0.225E-01    2.47       0.0  T
   2    -23.4700032 -0.386699E-04  0.130E-01    2.46       1.0  T
   3    -23.4700061 -0.296980E-05  0.439E-02    2.47       1.0  T
   4    -23.4700095 -0.336039E-05  0.161E-02    2.46       1.6  T
   5    -23.4700120 -0.253966E-05  0.913E-03    2.46       2.7  T
   6    -23.4700125 -0.501233E-06  0.303E-03    2.46       8.3  T
   7    -23.4700126 -0.679275E-07  0.111E-03    2.46      22.6  T
   8    -23.4700126 -0.578672E-08  0.366E-04    2.46      68.3  T
   9    -23.4700126 -0.619011E-09  0.236E-04    2.46     105.9  T
     SCC iter.                  ...        0 min,  0.004 sec
     gradient                   ...        0 min,  0.001 sec
 * total energy  :   -23.2379990 Eh     change       -0.2373416E-02 Eh
   gradient norm :     0.0224845 Eh/α   predicted    -0.3606985E-02 (  51.97%)
   displ. norm   :     0.0393378 α      lambda       -0.1560800E-03
   maximum displ.:     0.0224838 α      in ANC's #3, #2, #31, ...

........................................................................
.............................. CYCLE   19 ..............................
........................................................................

 iter      E             dE          RMSdq      gap      omega  full diag
   1    -23.4701382 -0.234701E+02  0.313E-02    2.47       0.0  T
   2    -23.4701380  0.237659E-06  0.224E-02    2.48       1.1  T
   3    -23.4701425 -0.450373E-05  0.139E-02    2.47       1.8  T
   4    -23.4701438 -0.132816E-05  0.233E-03    2.47      10.7  T
   5    -23.4701439 -0.298593E-07  0.734E-04    2.47      34.0  T
   6    -23.4701439 -0.177505E-08  0.308E-04    2.47      81.2  T
     SCC iter.                  ...        0 min,  0.003 sec
     gradient                   ...        0 min,  0.001 sec
 * total energy  :   -23.2381093 Eh     change       -0.1103309E-03 Eh
   gradient norm :     0.0076099 Eh/α   predicted    -0.7815957E-04 ( -29.16%)
   displ. norm   :     0.1352045 α      lambda       -0.2931333E-03
   maximum displ.:     0.1158110 α      in ANC's #2, #1, #18, ...

........................................................................
.............................. CYCLE   20 ..............................
........................................................................

 iter      E             dE          RMSdq      gap      omega  full diag
   1    -23.4697981 -0.234698E+02  0.799E-02    2.48       0.0  T
   2    -23.4697997 -0.162291E-05  0.488E-02    2.49       1.0  T
   3    -23.4697833  0.163772E-04  0.357E-02    2.48       1.0  T
   4    -23.4698040 -0.206823E-04  0.488E-03    2.49       5.1  T
   5    -23.4698043 -0.269986E-06  0.170E-03    2.49      14.7  T
   6    -23.4698043 -0.294670E-08  0.681E-04    2.49      36.7  T
   7    -23.4698043 -0.969525E-09  0.166E-04    2.49     150.9  T
     SCC iter.                  ...        0 min,  0.003 sec
     gradient                   ...        0 min,  0.001 sec
 * total energy  :   -23.2383307 Eh     change       -0.2213187E-03 Eh
   gradient norm :     0.0217890 Eh/α   predicted    -0.1492451E-03 ( -32.57%)
   displ. norm   :     0.1919966 α      lambda       -0.3208882E-03
   maximum displ.:     0.1645389 α      in ANC's #2, #1, #18, ...
 * RMSD in coord.:     0.4094361 α      energy gain  -0.5009930E-01 Eh

generating ANC from model Hessian ...
Using Lindh-Hessian (1995)
 Shifting diagonal of input Hessian by    9.2773381039880278E-003
 Lowest  eigenvalues of input Hessian
    0.000000    0.000000    0.000000    0.000000    0.000000    0.000000
    0.010000    0.013218    0.019081    0.025112    0.028103    0.039650
    0.048599    0.053753    0.056619    0.057826    0.059888    0.063779
 Highest eigenvalues
    1.276731    1.363004    1.381035    1.413592    4.435260   12.491325


........................................................................
.............................. CYCLE   21 ..............................
........................................................................

 iter      E             dE          RMSdq      gap      omega  full diag
   1    -23.4686503 -0.234687E+02  0.101E-01    2.51       0.0  T
   2    -23.4686542 -0.392828E-05  0.602E-02    2.51       1.0  T
   3    -23.4686499  0.431521E-05  0.208E-02    2.51       1.2  T
   4    -23.4686540 -0.412955E-05  0.846E-03    2.51       3.0  T
   5    -23.4686554 -0.138937E-05  0.203E-03    2.51      12.3  T
   6    -23.4686554 -0.489428E-08  0.815E-04    2.51      30.7  T
   7    -23.4686554 -0.174358E-08  0.154E-04    2.51     162.6  T
     SCC iter.                  ...        0 min,  0.003 sec
     gradient                   ...        0 min,  0.001 sec
 * total energy  :   -23.2384881 Eh     change       -0.1574313E-03 Eh
   gradient norm :     0.0288929 Eh/α   predicted     0.0000000E+00 (-100.00%)
   displ. norm   :     0.1366146 α      lambda       -0.7429295E-03
   maximum displ.:     0.1048551 α      in ANC's #2, #3, #4, ...

........................................................................
.............................. CYCLE   22 ..............................
........................................................................

 iter      E             dE          RMSdq      gap      omega  full diag
   1    -23.4706624 -0.234707E+02  0.848E-02    2.52       0.0  T
   2    -23.4706663 -0.396410E-05  0.534E-02    2.51       1.0  T
   3    -23.4706511  0.152472E-04  0.378E-02    2.52       1.0  T
   4    -23.4706719 -0.208391E-04  0.690E-03    2.52       3.6  T
   5    -23.4706725 -0.585312E-06  0.201E-03    2.52      12.5  T
   6    -23.4706725 -0.581672E-08  0.784E-04    2.52      31.9  T
   7    -23.4706725 -0.206395E-08  0.262E-04    2.52      95.4  T
     SCC iter.                  ...        0 min,  0.003 sec
     gradient                   ...        0 min,  0.001 sec
 * total energy  :   -23.2389611 Eh     change       -0.4730185E-03 Eh
   gradient norm :     0.0241461 Eh/α   predicted    -0.3784002E-03 ( -20.00%)
   displ. norm   :     0.1931649 α      lambda       -0.6020008E-03
   maximum displ.:     0.1690669 α      in ANC's #2, #3, #4, ...

........................................................................
.............................. CYCLE   23 ..............................
........................................................................

 iter      E             dE          RMSdq      gap      omega  full diag
   1    -23.4710883 -0.234711E+02  0.106E-01    2.52       0.0  T
   2    -23.4710915 -0.323728E-05  0.695E-02    2.53       1.0  T
   3    -23.4710649  0.265818E-04  0.503E-02    2.52       1.0  T
   4    -23.4711033 -0.383873E-04  0.583E-03    2.53       4.3  T
   5    -23.4711037 -0.424992E-06  0.208E-03    2.52      12.0  T
   6    -23.4711037 -0.398075E-08  0.809E-04    2.52      30.9  T
   7    -23.4711037 -0.176244E-08  0.282E-04    2.52      88.5  T
     SCC iter.                  ...        0 min,  0.003 sec
     gradient                   ...        0 min,  0.001 sec
 * total energy  :   -23.2393001 Eh     change       -0.3390197E-03 Eh
   gradient norm :     0.0372414 Eh/α   predicted    -0.3122293E-03 (  -7.90%)
   displ. norm   :     0.1819428 α      lambda       -0.5334973E-03
   maximum displ.:     0.1741779 α      in ANC's #2, #35, #6, ...

........................................................................
.............................. CYCLE   24 ..............................
........................................................................

 iter      E             dE          RMSdq      gap      omega  full diag
   1    -23.4724834 -0.234725E+02  0.746E-02    2.52       0.0  T
   2    -23.4724842 -0.864768E-06  0.470E-02    2.52       1.0  T
   3    -23.4724697  0.144697E-04  0.279E-02    2.52       1.0  T
   4    -23.4724861 -0.164023E-04  0.309E-03    2.52       8.1  T
   5    -23.4724862 -0.247245E-07  0.168E-03    2.52      14.9  T
   6    -23.4724862 -0.245711E-08  0.405E-04    2.52      61.8  T
   7    -23.4724862 -0.596785E-09  0.198E-04    2.52     126.3  T
     SCC iter.                  ...        0 min,  0.003 sec
     gradient                   ...        0 min,  0.001 sec
 * total energy  :   -23.2396481 Eh     change       -0.3480113E-03 Eh
   gradient norm :     0.0159969 Eh/α   predicted    -0.2755772E-03 ( -20.81%)
   displ. norm   :     0.3489973 α      lambda       -0.6190592E-03
   maximum displ.:     0.3246508 α      in ANC's #2, #4, #3, ...

........................................................................
.............................. CYCLE   25 ..............................
........................................................................

 iter      E             dE          RMSdq      gap      omega  full diag
   1    -23.4665169 -0.234665E+02  0.217E-01    2.51       0.0  T
   2    -23.4665263 -0.938871E-05  0.132E-01    2.49       1.0  T
   3    -23.4664030  0.123248E-03  0.103E-01    2.52       1.0  T
   4    -23.4665654 -0.162361E-03  0.111E-02    2.50       2.3  T
   5    -23.4665663 -0.931430E-06  0.471E-03    2.50       5.3  T
   6    -23.4665663 -0.250539E-07  0.169E-03    2.50      14.8  T
   7    -23.4665663 -0.613393E-08  0.557E-04    2.50      44.9  T
   8    -23.4665663 -0.133129E-08  0.252E-04    2.50      99.3  T
     SCC iter.                  ...        0 min,  0.004 sec
     gradient                   ...        0 min,  0.001 sec
 * total energy  :   -23.2389794 Eh     change        0.6687699E-03 Eh
   gradient norm :     0.0478969 Eh/α   predicted    -0.3472290E-03 (-151.92%)
   displ. norm   :     0.1655440 α      lambda       -0.2795733E-02
   maximum displ.:     0.1464605 α      in ANC's #2, #3, #6, ...

........................................................................
.............................. CYCLE   26 ..............................
........................................................................

 iter      E             dE          RMSdq      gap      omega  full diag
   1    -23.4736685 -0.234737E+02  0.149E-01    2.49       0.0  T
   2    -23.4736829 -0.144149E-04  0.818E-02    2.50       1.0  T
   3    -23.4736505  0.323887E-04  0.723E-02    2.48       1.0  T
   4    -23.4737155 -0.649646E-04  0.139E-02    2.50       1.8  T
   5    -23.4737166 -0.108501E-05  0.528E-03    2.50       4.7  T
   6    -23.4737166 -0.413181E-07  0.199E-03    2.50      12.6  T
   7    -23.4737166 -0.881659E-08  0.696E-04    2.50      35.9  T
   8    -23.4737166 -0.199222E-08  0.277E-04    2.50      90.1  T
     SCC iter.                  ...        0 min,  0.004 sec
     gradient                   ...        0 min,  0.001 sec
 * total energy  :   -23.2400273 Eh     change       -0.1047905E-02 Eh
   gradient norm :     0.0104708 Eh/α   predicted    -0.1436172E-02 (  37.05%)
   displ. norm   :     0.0843195 α      lambda       -0.2441901E-03
   maximum displ.:     0.0689710 α      in ANC's #2, #4, #35, ...

........................................................................
.............................. CYCLE   27 ..............................
........................................................................

 iter      E             dE          RMSdq      gap      omega  full diag
   1    -23.4731207 -0.234731E+02  0.588E-02    2.51       0.0  T
   2    -23.4731216 -0.877523E-06  0.356E-02    2.51       1.0  T
   3    -23.4731201  0.142082E-05  0.103E-02    2.51       2.4  T
   4    -23.4731216 -0.150519E-05  0.395E-03    2.51       6.3  T
   5    -23.4731219 -0.280788E-06  0.120E-03    2.51      20.9  T
   6    -23.4731219 -0.150854E-08  0.411E-04    2.51      60.8  T
   7    -23.4731219 -0.516025E-09  0.135E-04    2.51     184.6  T
     SCC iter.                  ...        0 min,  0.003 sec
     gradient                   ...        0 min,  0.001 sec
 * total energy  :   -23.2402334 Eh     change       -0.2061689E-03 Eh
   gradient norm :     0.0052958 Eh/α   predicted    -0.1229645E-03 ( -40.36%)
   displ. norm   :     0.3728307 α      lambda       -0.6983356E-03
   maximum displ.:     0.3159555 α      in ANC's #2, #35, #4, ...

........................................................................
.............................. CYCLE   28 ..............................
........................................................................

 iter      E             dE          RMSdq      gap      omega  full diag
   1    -23.4665849 -0.234666E+02  0.249E-01    2.52       0.0  T
   2    -23.4666015 -0.166254E-04  0.149E-01    2.51       1.0  T
   3    -23.4664885  0.112980E-03  0.883E-02    2.54       1.0  T
   4    -23.4666186 -0.130110E-03  0.154E-02    2.52       1.6  T
   5    -23.4666216 -0.294014E-05  0.550E-03    2.52       4.5  T
   6    -23.4666216 -0.316700E-07  0.195E-03    2.52      12.8  T
   7    -23.4666216 -0.888679E-08  0.676E-04    2.52      37.0  T
   8    -23.4666216 -0.200928E-08  0.307E-04    2.52      81.5  T
     SCC iter.                  ...        0 min,  0.004 sec
     gradient                   ...        0 min,  0.001 sec
 * total energy  :   -23.2392723 Eh     change        0.9611782E-03 Eh
   gradient norm :     0.0512781 Eh/α   predicted    -0.3977088E-03 (-141.38%)
   displ. norm   :     0.2533686 α      lambda       -0.3371005E-02
   maximum displ.:     0.2111707 α      in ANC's #2, #4, #35, ...

........................................................................
.............................. CYCLE   29 ..............................
........................................................................

 iter      E             dE          RMSdq      gap      omega  full diag
   1    -23.4733143 -0.234733E+02  0.189E-01    2.52       0.0  T
   2    -23.4733262 -0.119104E-04  0.112E-01    2.52       1.0  T
   3    -23.4732706  0.556446E-04  0.629E-02    2.51       1.0  T
   4    -23.4733359 -0.653244E-04  0.132E-02    2.52       1.9  T
   5    -23.4733377 -0.177346E-05  0.571E-03    2.52       4.4  T
   6    -23.4733377 -0.349887E-07  0.181E-03    2.52      13.8  T
   7    -23.4733377 -0.116562E-07  0.745E-04    2.52      33.5  T
   8    -23.4733377 -0.267094E-08  0.305E-04    2.52      82.1  T
     SCC iter.                  ...        0 min,  0.004 sec
     gradient                   ...        0 min,  0.001 sec
 * total energy  :   -23.2404359 Eh     change       -0.1163668E-02 Eh
   gradient norm :     0.0059841 Eh/α   predicted    -0.1793700E-02 (  54.14%)
   displ. norm   :     0.0407274 α      lambda       -0.9915457E-04
   maximum displ.:     0.0254175 α      in ANC's #2, #35, #3, ...

........................................................................
.............................. CYCLE   30 ..............................
........................................................................

 iter      E             dE          RMSdq      gap      omega  full diag
   1    -23.4733583 -0.234734E+02  0.311E-02    2.52       0.0  T
   2    -23.4733585 -0.244237E-06  0.194E-02    2.52       1.3  T
   3    -23.4733579  0.660694E-06  0.647E-03    2.51       3.9  T
   4    -23.4733586 -0.721804E-06  0.188E-03    2.52      13.3  T
   5    -23.4733587 -0.637180E-07  0.531E-04    2.52      47.0  T
   6    -23.4733587 -0.151530E-09  0.184E-04    2.52     136.0  T
     SCC iter.                  ...        0 min,  0.003 sec
     gradient                   ...        0 min,  0.001 sec
 * total energy  :   -23.2405278 Eh     change       -0.9184774E-04 Eh
   gradient norm :     0.0059017 Eh/α   predicted    -0.4965825E-04 ( -45.93%)
   displ. norm   :     0.3522706 α      lambda       -0.7049774E-03
   maximum displ.:     0.2560821 α      in ANC's #2, #35, #3, ...

........................................................................
.............................. CYCLE   31 ..............................
........................................................................

 iter      E             dE          RMSdq      gap      omega  full diag
   1    -23.4683213 -0.234683E+02  0.245E-01    2.50       0.0  T
   2    -23.4683329 -0.115468E-04  0.150E-01    2.50       1.0  T
   3    -23.4682631  0.697667E-04  0.641E-02    2.51       1.0  T
   4    -23.4683414 -0.782657E-04  0.123E-02    2.50       2.0  T
   5    -23.4683433 -0.189796E-05  0.498E-03    2.50       5.0  T
   6    -23.4683433 -0.256324E-07  0.148E-03    2.50      16.9  T
   7    -23.4683433 -0.545505E-08  0.586E-04    2.50      42.6  T
   8    -23.4683433 -0.168137E-08  0.287E-04    2.50      87.1  T
     SCC iter.                  ...        0 min,  0.004 sec
     gradient                   ...        0 min,  0.001 sec
 * total energy  :   -23.2399465 Eh     change        0.5812901E-03 Eh
   gradient norm :     0.0499506 Eh/α   predicted    -0.3962376E-03 (-168.17%)
   displ. norm   :     0.2368726 α      lambda       -0.2635020E-02
   maximum displ.:     0.1706554 α      in ANC's #2, #35, #3, ...

........................................................................
.............................. CYCLE   32 ..............................
........................................................................

 iter      E             dE          RMSdq      gap      omega  full diag
   1    -23.4737863 -0.234738E+02  0.179E-01    2.51       0.0  T
   2    -23.4737953 -0.891201E-05  0.108E-01    2.51       1.0  T
   3    -23.4737708  0.244618E-04  0.411E-02    2.50       1.0  T
   4    -23.4737996 -0.287993E-04  0.117E-02    2.51       2.1  T
   5    -23.4738012 -0.159791E-05  0.513E-03    2.51       4.9  T
   6    -23.4738012 -0.345716E-07  0.149E-03    2.51      16.8  T
   7    -23.4738012 -0.696534E-08  0.650E-04    2.51      38.5  T
   8    -23.4738012 -0.211818E-08  0.273E-04    2.51      91.5  T
     SCC iter.                  ...        0 min,  0.004 sec
     gradient                   ...        0 min,  0.001 sec
 * total energy  :   -23.2407593 Eh     change       -0.8128258E-03 Eh
   gradient norm :     0.0047728 Eh/α   predicted    -0.1391433E-02 (  71.18%)
   displ. norm   :     0.0522864 α      lambda       -0.1068354E-03
   maximum displ.:     0.0364339 α      in ANC's #2, #35, #3, ...

........................................................................
.............................. CYCLE   33 ..............................
........................................................................

 iter      E             dE          RMSdq      gap      omega  full diag
   1    -23.4738033 -0.234738E+02  0.362E-02    2.51       0.0  T
   2    -23.4738035 -0.262332E-06  0.225E-02    2.51       1.1  T
   3    -23.4738035 -0.219570E-07  0.255E-03    2.51       9.8  T
   4    -23.4738036 -0.582731E-07  0.863E-04    2.51      29.0  T
   5    -23.4738036 -0.184832E-08  0.630E-04    2.51      39.7  T
     SCC iter.                  ...        0 min,  0.003 sec
     gradient                   ...        0 min,  0.001 sec
 * total energy  :   -23.2408615 Eh     change       -0.1021407E-03 Eh
   gradient norm :     0.0061183 Eh/α   predicted    -0.5356499E-04 ( -47.56%)
   displ. norm   :     0.4444465 α      lambda       -0.8466275E-03
   maximum displ.:     0.3138402 α      in ANC's #2, #35, #3, ...

........................................................................
.............................. CYCLE   34 ..............................
........................................................................

 iter      E             dE          RMSdq      gap      omega  full diag
   1    -23.4659767 -0.234660E+02  0.291E-01    2.49       0.0  T
   2    -23.4659925 -0.157224E-04  0.177E-01    2.47       1.0  T
   3    -23.4657760  0.216419E-03  0.119E-01    2.50       1.0  T
   4    -23.4660272 -0.251150E-03  0.145E-02    2.48       1.7  T
   5    -23.4660290 -0.175926E-05  0.635E-03    2.48       3.9  T
   6    -23.4660290 -0.518517E-07  0.214E-03    2.48      11.7  T
   7    -23.4660290 -0.929766E-08  0.703E-04    2.48      35.5  T
   8    -23.4660290 -0.232451E-08  0.365E-04    2.48      68.4  T
     SCC iter.                  ...        0 min,  0.004 sec
     gradient                   ...        0 min,  0.001 sec
 * total energy  :   -23.2394082 Eh     change        0.1453267E-02 Eh
   gradient norm :     0.0601293 Eh/α   predicted    -0.5069333E-03 (-134.88%)
   displ. norm   :     0.3104239 α      lambda       -0.5211059E-02
   maximum displ.:     0.2130726 α      in ANC's #2, #35, #3, ...

........................................................................
.............................. CYCLE   35 ..............................
........................................................................

 iter      E             dE          RMSdq      gap      omega  full diag
   1    -23.4740692 -0.234741E+02  0.224E-01    2.50       0.0  T
   2    -23.4740841 -0.148686E-04  0.134E-01    2.51       1.0  T
   3    -23.4739873  0.968295E-04  0.807E-02    2.49       1.0  T
   4    -23.4741011 -0.113827E-03  0.143E-02    2.51       1.7  T
   5    -23.4741026 -0.146875E-05  0.695E-03    2.51       3.6  T
   6    -23.4741026 -0.607130E-07  0.214E-03    2.51      11.7  T
   7    -23.4741026 -0.157004E-07  0.816E-04    2.51      30.6  T
   8    -23.4741027 -0.310055E-08  0.383E-04    2.51      65.4  T
     SCC iter.                  ...        0 min,  0.004 sec
     gradient                   ...        0 min,  0.001 sec
 * total energy  :   -23.2411047 Eh     change       -0.1696473E-02 Eh
   gradient norm :     0.0045327 Eh/α   predicted    -0.2856606E-02 (  68.38%)
   displ. norm   :     0.0402212 α      lambda       -0.9270824E-04
   maximum displ.:     0.0273064 α      in ANC's #35, #3, #2, ...

........................................................................
.............................. CYCLE   36 ..............................
........................................................................

 iter      E             dE          RMSdq      gap      omega  full diag
   1    -23.4742512 -0.234743E+02  0.312E-02    2.50       0.0  T
   2    -23.4742515 -0.243244E-06  0.195E-02    2.50       1.3  T
   3    -23.4742504  0.108978E-05  0.795E-03    2.50       3.1  T
   4    -23.4742516 -0.119124E-05  0.185E-03    2.50      13.5  T
   5    -23.4742516 -0.590584E-07  0.502E-04    2.50      49.8  T
   6    -23.4742516 -0.142389E-09  0.159E-04    2.50     157.5  T
     SCC iter.                  ...        0 min,  0.003 sec
     gradient                   ...        0 min,  0.001 sec
 * total energy  :   -23.2411908 Eh     change       -0.8616775E-04 Eh
   gradient norm :     0.0065572 Eh/α   predicted    -0.4642998E-04 ( -46.12%)
   displ. norm   :     0.3639970 α      lambda       -0.7118975E-03
   maximum displ.:     0.2362552 α      in ANC's #35, #2, #3, ...

........................................................................
.............................. CYCLE   37 ..............................
........................................................................

 iter      E             dE          RMSdq      gap      omega  full diag
   1    -23.4686773 -0.234687E+02  0.246E-01    2.47       0.0  T
   2    -23.4686879 -0.106353E-04  0.151E-01    2.46       1.0  T
   3    -23.4685615  0.126414E-03  0.865E-02    2.48       1.0  T
   4    -23.4687042 -0.142702E-03  0.111E-02    2.46       2.3  T
   5    -23.4687053 -0.104010E-05  0.515E-03    2.46       4.9  T
   6    -23.4687053 -0.317298E-07  0.158E-03    2.46      15.8  T
   7    -23.4687053 -0.664744E-08  0.569E-04    2.46      43.9  T
   8    -23.4687053 -0.148399E-08  0.302E-04    2.46      82.9  T
     SCC iter.                  ...        0 min,  0.004 sec
     gradient                   ...        0 min,  0.001 sec
 * total energy  :   -23.2404862 Eh     change        0.7046083E-03 Eh
   gradient norm :     0.0555846 Eh/α   predicted    -0.4030985E-03 (-157.21%)
   displ. norm   :     0.2539625 α      lambda       -0.3077974E-02
   maximum displ.:     0.1644167 α      in ANC's #35, #2, #3, ...

........................................................................
.............................. CYCLE   38 ..............................
........................................................................

 iter      E             dE          RMSdq      gap      omega  full diag
   1    -23.4746010 -0.234746E+02  0.184E-01    2.49       0.0  T
   2    -23.4746103 -0.926683E-05  0.112E-01    2.50       1.0  T
   3    -23.4745725  0.378275E-04  0.495E-02    2.49       1.0  T
   4    -23.4746169 -0.444581E-04  0.114E-02    2.50       2.2  T
   5    -23.4746181 -0.112114E-05  0.540E-03    2.50       4.6  T
   6    -23.4746181 -0.347063E-07  0.152E-03    2.50      16.5  T
   7    -23.4746181 -0.846521E-08  0.620E-04    2.50      40.4  T
   8    -23.4746181 -0.177599E-08  0.287E-04    2.50      87.2  T
     SCC iter.                  ...        0 min,  0.004 sec
     gradient                   ...        0 min,  0.001 sec
 * total energy  :   -23.2414021 Eh     change       -0.9158805E-03 Eh
   gradient norm :     0.0042546 Eh/α   predicted    -0.1638224E-02 (  78.87%)
   displ. norm   :     0.0495033 α      lambda       -0.9215657E-04
   maximum displ.:     0.0335362 α      in ANC's #35, #2, #3, ...

........................................................................
.............................. CYCLE   39 ..............................
........................................................................

 iter      E             dE          RMSdq      gap      omega  full diag
   1    -23.4745699 -0.234746E+02  0.332E-02    2.49       0.0  T
   2    -23.4745701 -0.208961E-06  0.206E-02    2.49       1.2  T
   3    -23.4745696  0.466152E-06  0.541E-03    2.49       4.6  T
   4    -23.4745701 -0.521776E-06  0.169E-03    2.49      14.8  T
   5    -23.4745702 -0.506486E-07  0.536E-04    2.49      46.6  T
   6    -23.4745702 -0.159240E-09  0.130E-04    2.49     192.7  T
     SCC iter.                  ...        0 min,  0.003 sec
     gradient                   ...        0 min,  0.001 sec
 * total energy  :   -23.2414900 Eh     change       -0.8791522E-04 Eh
   gradient norm :     0.0054019 Eh/α   predicted    -0.4619089E-04 ( -47.46%)
   displ. norm   :     0.4102210 α      lambda       -0.7086998E-03
   maximum displ.:     0.2813579 α      in ANC's #35, #2, #3, ...

........................................................................
.............................. CYCLE   40 ..............................
........................................................................

 iter      E             dE          RMSdq      gap      omega  full diag
   1    -23.4673616 -0.234674E+02  0.255E-01    2.46       0.0  T
   2    -23.4673725 -0.108438E-04  0.155E-01    2.44       1.0  T
   3    -23.4671804  0.192120E-03  0.115E-01    2.47       1.0  T
   4    -23.4674082 -0.227871E-03  0.126E-02    2.45       2.0  T
   5    -23.4674093 -0.111238E-05  0.583E-03    2.45       4.3  T
   6    -23.4674094 -0.481907E-07  0.194E-03    2.45      12.9  T
   7    -23.4674094 -0.707872E-08  0.545E-04    2.45      45.8  T
   8    -23.4674094 -0.128197E-08  0.300E-04    2.45      83.4  T
     SCC iter.                  ...        0 min,  0.004 sec
     gradient                   ...        0 min,  0.001 sec
 * total energy  :   -23.2402891 Eh     change        0.1200966E-02 Eh
   gradient norm :     0.0556089 Eh/α   predicted    -0.4139560E-03 (-134.47%)
   displ. norm   :     0.2956278 α      lambda       -0.4344690E-02
   maximum displ.:     0.2059613 α      in ANC's #35, #2, #3, ...

........................................................................
.............................. CYCLE   41 ..............................
........................................................................

 iter      E             dE          RMSdq      gap      omega  full diag
   1    -23.4747200 -0.234747E+02  0.199E-01    2.48       0.0  T
   2    -23.4747316 -0.115422E-04  0.119E-01    2.49       1.0  T
   3    -23.4746418  0.897221E-04  0.782E-02    2.47       1.0  T
   4    -23.4747480 -0.106169E-03  0.127E-02    2.49       2.0  T
   5    -23.4747490 -0.970171E-06  0.633E-03    2.49       3.9  T
   6    -23.4747490 -0.483799E-07  0.191E-03    2.49      13.1  T
   7    -23.4747490 -0.126697E-07  0.640E-04    2.49      39.1  T
   8    -23.4747490 -0.170608E-08  0.323E-04    2.49      77.5  T
     SCC iter.                  ...        0 min,  0.004 sec
     gradient                   ...        0 min,  0.001 sec
 * total energy  :   -23.2416758 Eh     change       -0.1386762E-02 Eh
   gradient norm :     0.0039553 Eh/α   predicted    -0.2362189E-02 (  70.34%)
   displ. norm   :     0.0366058 α      lambda       -0.7023260E-04
   maximum displ.:     0.0294972 α      in ANC's #35, #2, #3, ...

........................................................................
.............................. CYCLE   42 ..............................
........................................................................

 iter      E             dE          RMSdq      gap      omega  full diag
   1    -23.4748269 -0.234748E+02  0.266E-02    2.48       0.0  T
   2    -23.4748271 -0.177449E-06  0.166E-02    2.48       1.5  T
   3    -23.4748271  0.346399E-07  0.267E-03    2.48       9.4  T
   4    -23.4748271 -0.609007E-07  0.133E-03    2.48      18.8  T
   5    -23.4748272 -0.320212E-07  0.432E-04    2.48      57.9  T
   6    -23.4748272 -0.222066E-09  0.100E-04    2.48     249.7  T
     SCC iter.                  ...        0 min,  0.003 sec
     gradient                   ...        0 min,  0.001 sec
 * total energy  :   -23.2417419 Eh     change       -0.6611542E-04 Eh
   gradient norm :     0.0056612 Eh/α   predicted    -0.3516558E-04 ( -46.81%)
   displ. norm   :     0.3487013 α      lambda       -0.5745109E-03
   maximum displ.:     0.2658447 α      in ANC's #35, #2, #3, ...
 * RMSD in coord.:     0.4504307 α      energy gain  -0.3411272E-02 Eh

generating ANC from model Hessian ...
Using Lindh-Hessian (1995)
 Shifting diagonal of input Hessian by    8.9809280700690556E-003
 Lowest  eigenvalues of input Hessian
    0.000000    0.000000    0.000000    0.000000    0.000000    0.000000
    0.010000    0.013657    0.016233    0.022479    0.026534    0.045693
    0.049058    0.053272    0.056806    0.057235    0.059239    0.063869
 Highest eigenvalues
    1.280530    1.363568    1.385789    1.416564    4.504952   12.416159


........................................................................
.............................. CYCLE   43 ..............................
........................................................................

 iter      E             dE          RMSdq      gap      omega  full diag
   1    -23.4696546 -0.234697E+02  0.216E-01    2.45       0.0  T
   2    -23.4696623 -0.768750E-05  0.132E-01    2.44       1.0  T
   3    -23.4695284  0.133871E-03  0.928E-02    2.46       1.0  T
   4    -23.4696836 -0.155235E-03  0.101E-02    2.44       2.5  T
   5    -23.4696844 -0.725220E-06  0.478E-03    2.44       5.2  T
   6    -23.4696844 -0.289736E-07  0.151E-03    2.44      16.6  T
   7    -23.4696844 -0.487779E-08  0.439E-04    2.44      56.9  T
   8    -23.4696844 -0.810186E-09  0.240E-04    2.44     104.1  T
     SCC iter.                  ...        0 min,  0.004 sec
     gradient                   ...        0 min,  0.001 sec
 * total energy  :   -23.2411057 Eh     change        0.6362659E-03 Eh
   gradient norm :     0.0465004 Eh/α   predicted     0.0000000E+00 (-100.00%)
   displ. norm   :     0.0868665 α      lambda       -0.1740072E-02
   maximum displ.:     0.0702190 α      in ANC's #2, #34, #3, ...

........................................................................
.............................. CYCLE   44 ..............................
........................................................................

 iter      E             dE          RMSdq      gap      omega  full diag
   1    -23.4740551 -0.234741E+02  0.902E-02    2.41       0.0  T
   2    -23.4740638 -0.873149E-05  0.523E-02    2.40       1.0  T
   3    -23.4740550  0.885076E-05  0.328E-02    2.41       1.0  T
   4    -23.4740663 -0.112789E-04  0.144E-02    2.40       1.7  T
   5    -23.4740690 -0.270230E-05  0.336E-03    2.41       7.4  T
   6    -23.4740690 -0.136157E-07  0.103E-03    2.41      24.3  T
   7    -23.4740690 -0.413213E-08  0.375E-04    2.41      66.7  T
   8    -23.4740690 -0.415998E-09  0.843E-05    2.41     296.4  T
     SCC iter.                  ...        0 min,  0.004 sec
     gradient                   ...        0 min,  0.001 sec
 * total energy  :   -23.2421916 Eh     change       -0.1085931E-02 Eh
   gradient norm :     0.0249604 Eh/α   predicted    -0.8766038E-03 ( -19.28%)
   displ. norm   :     0.0519675 α      lambda       -0.4639287E-03
   maximum displ.:     0.0332544 α      in ANC's #1, #2, #34, ...

........................................................................
.............................. CYCLE   45 ..............................
........................................................................

 iter      E             dE          RMSdq      gap      omega  full diag
   1    -23.4765535 -0.234766E+02  0.618E-02    2.42       0.0  T
   2    -23.4765503  0.322369E-05  0.442E-02    2.43       1.0  T
   3    -23.4765821 -0.318108E-04  0.246E-02    2.42       1.0  T
   4    -23.4765867 -0.462414E-05  0.593E-03    2.42       4.2  T
   5    -23.4765868 -0.865390E-07  0.197E-03    2.42      12.7  T
   6    -23.4765868 -0.746933E-08  0.849E-04    2.42      29.4  T
   7    -23.4765868 -0.829168E-09  0.258E-04    2.42      97.0  T
     SCC iter.                  ...        0 min,  0.004 sec
     gradient                   ...        0 min,  0.001 sec
 * total energy  :   -23.2422785 Eh     change       -0.8687440E-04 Eh
   gradient norm :     0.0388921 Eh/α   predicted    -0.2325917E-03 ( 167.73%)
   displ. norm   :     0.0587119 α      lambda       -0.2196344E-03
   maximum displ.:     0.0435093 α      in ANC's #2, #3, #1, ...

........................................................................
.............................. CYCLE   46 ..............................
........................................................................

 iter      E             dE          RMSdq      gap      omega  full diag
   1    -23.4758807 -0.234759E+02  0.397E-02    2.42       0.0  T
   2    -23.4758794  0.123379E-05  0.300E-02    2.41       1.0  T
   3    -23.4758882 -0.874092E-05  0.181E-02    2.42       1.4  T
   4    -23.4758902 -0.200299E-05  0.282E-03    2.42       8.9  T
   5    -23.4758902 -0.454554E-07  0.921E-04    2.42      27.1  T
   6    -23.4758902 -0.121203E-08  0.380E-04    2.42      65.8  T
     SCC iter.                  ...        0 min,  0.003 sec
     gradient                   ...        0 min,  0.001 sec
 * total energy  :   -23.2424143 Eh     change       -0.1358552E-03 Eh
   gradient norm :     0.0016473 Eh/α   predicted    -0.1101960E-03 ( -18.89%)
   displ. norm   :     0.1516443 α      lambda       -0.8386541E-04
   maximum displ.:     0.1244599 α      in ANC's #2, #3, #1, ...

........................................................................
.............................. CYCLE   47 ..............................
........................................................................

 iter      E             dE          RMSdq      gap      omega  full diag
   1    -23.4741621 -0.234742E+02  0.844E-02    2.40       0.0  T
   2    -23.4741628 -0.719041E-06  0.523E-02    2.40       1.0  T
   3    -23.4741381  0.247189E-04  0.399E-02    2.40       1.0  T
   4    -23.4741672 -0.291080E-04  0.358E-03    2.40       7.0  T
   5    -23.4741673 -0.626884E-07  0.186E-03    2.40      13.5  T
   6    -23.4741673 -0.438124E-08  0.578E-04    2.40      43.2  T
   7    -23.4741673 -0.705551E-09  0.109E-04    2.40     228.4  T
     SCC iter.                  ...        0 min,  0.004 sec
     gradient                   ...        0 min,  0.001 sec
 * total energy  :   -23.2423993 Eh     change        0.1503002E-04 Eh
   gradient norm :     0.0156795 Eh/α   predicted    -0.4236055E-04 (-381.84%)
   displ. norm   :     0.0416342 α      lambda       -0.1630299E-03
   maximum displ.:     0.0358040 α      in ANC's #1, #3, #2, ...

........................................................................
.............................. CYCLE   48 ..............................
........................................................................

 iter      E             dE          RMSdq      gap      omega  full diag
   1    -23.4754870 -0.234755E+02  0.331E-02    2.42       0.0  T
   2    -23.4754873 -0.296018E-06  0.202E-02    2.42       1.2  T
   3    -23.4754854  0.191428E-05  0.109E-02    2.42       2.3  T
   4    -23.4754876 -0.220205E-05  0.208E-03    2.42      12.0  T
   5    -23.4754876 -0.311801E-07  0.911E-04    2.42      27.4  T
   6    -23.4754876 -0.958618E-09  0.326E-04    2.42      76.7  T
     SCC iter.                  ...        0 min,  0.003 sec
     gradient                   ...        0 min,  0.001 sec
 * total energy  :   -23.2424945 Eh     change       -0.9515676E-04 Eh
   gradient norm :     0.0169024 Eh/α   predicted    -0.8165536E-04 ( -14.19%)
   displ. norm   :     0.0323918 α      lambda       -0.5390603E-04
   maximum displ.:     0.0251803 α      in ANC's #1, #2, #34, ...

........................................................................
.............................. CYCLE   49 ..............................
........................................................................

 iter      E             dE          RMSdq      gap      omega  full diag
   1    -23.4760325 -0.234760E+02  0.157E-02    2.42       0.0  T
   2    -23.4760324  0.118672E-06  0.109E-02    2.42       2.3  T
   3    -23.4760336 -0.118994E-05  0.704E-03    2.42       3.6  T
   4    -23.4760340 -0.403675E-06  0.135E-03    2.42      18.5  T
   5    -23.4760340 -0.748883E-08  0.434E-04    2.42      57.6  T
   6    -23.4760340 -0.406537E-09  0.188E-04    2.42     132.9  T
     SCC iter.                  ...        0 min,  0.003 sec
     gradient                   ...        0 min,  0.001 sec
 * total energy  :   -23.2425309 Eh     change       -0.3641328E-04 Eh
   gradient norm :     0.0042400 Eh/α   predicted    -0.2698218E-04 ( -25.90%)
   displ. norm   :     0.1030623 α      lambda       -0.5098917E-04
   maximum displ.:     0.0702382 α      in ANC's #1, #2, #3, ...

........................................................................
.............................. CYCLE   50 ..............................
........................................................................

 iter      E             dE          RMSdq      gap      omega  full diag
   1    -23.4761025 -0.234761E+02  0.391E-02    2.43       0.0  T
   2    -23.4761027 -0.176151E-06  0.239E-02    2.43       1.0  T
   3    -23.4760996  0.306279E-05  0.129E-02    2.43       1.9  T
   4    -23.4761030 -0.339684E-05  0.145E-03    2.43      17.3  T
   5    -23.4761030 -0.194681E-07  0.688E-04    2.43      36.4  T
   6    -23.4761030 -0.142872E-09  0.132E-04    2.43     188.8  T
     SCC iter.                  ...        0 min,  0.003 sec
     gradient                   ...        0 min,  0.001 sec
 * total energy  :   -23.2425713 Eh     change       -0.4046471E-04 Eh
   gradient norm :     0.0017319 Eh/α   predicted    -0.2576757E-04 ( -36.32%)
   displ. norm   :     0.2625840 α      lambda       -0.6407176E-04
   maximum displ.:     0.1840484 α      in ANC's #2, #1, #3, ...

........................................................................
.............................. CYCLE   51 ..............................
........................................................................

 iter      E             dE          RMSdq      gap      omega  full diag
   1    -23.4738761 -0.234739E+02  0.116E-01    2.43       0.0  T
   2    -23.4738789 -0.288487E-05  0.705E-02    2.43       1.0  T
   3    -23.4738612  0.177235E-04  0.322E-02    2.44       1.0  T
   4    -23.4738809 -0.196726E-04  0.693E-03    2.43       3.6  T
   5    -23.4738816 -0.668927E-06  0.253E-03    2.43       9.9  T
   6    -23.4738816 -0.312043E-08  0.616E-04    2.43      40.6  T
   7    -23.4738816 -0.961240E-09  0.186E-04    2.43     134.3  T
     SCC iter.                  ...        0 min,  0.003 sec
     gradient                   ...        0 min,  0.001 sec
 * total energy  :   -23.2424542 Eh     change        0.1171396E-03 Eh
   gradient norm :     0.0169370 Eh/α   predicted    -0.3301532E-04 (-128.18%)
   displ. norm   :     0.1276445 α      lambda       -0.3113313E-03
   maximum displ.:     0.0906196 α      in ANC's #2, #1, #3, ...

........................................................................
.............................. CYCLE   52 ..............................
........................................................................

 iter      E             dE          RMSdq      gap      omega  full diag
   1    -23.4758059 -0.234758E+02  0.615E-02    2.43       0.0  T
   2    -23.4758069 -0.105712E-05  0.367E-02    2.43       1.0  T
   3    -23.4757994  0.756458E-05  0.221E-02    2.43       1.1  T
   4    -23.4758080 -0.865435E-05  0.421E-03    2.43       5.9  T
   5    -23.4758082 -0.200614E-06  0.168E-03    2.43      14.9  T
   6    -23.4758082 -0.242682E-08  0.505E-04    2.43      49.5  T
   7    -23.4758082 -0.664219E-09  0.166E-04    2.43     151.0  T
     SCC iter.                  ...        0 min,  0.003 sec
     gradient                   ...        0 min,  0.001 sec
 * total energy  :   -23.2426011 Eh     change       -0.1469160E-03 Eh
   gradient norm :     0.0038837 Eh/α   predicted    -0.1582007E-03 (   7.68%)
   displ. norm   :     0.0079928 α      lambda       -0.1032408E-04
   maximum displ.:     0.0055339 α      in ANC's #3, #34, #1, ...

........................................................................
.............................. CYCLE   53 ..............................
........................................................................

 iter      E             dE          RMSdq      gap      omega  full diag
   1    -23.4760762 -0.234761E+02  0.604E-03    2.43       0.0  T
   2    -23.4760762 -0.204832E-07  0.347E-03    2.43       7.2  T
   3    -23.4760762  0.744727E-08  0.128E-03    2.43      19.6  T
   4    -23.4760762 -0.713170E-08  0.620E-04    2.43      40.3  T
   5    -23.4760762 -0.674226E-08  0.209E-04    2.43     119.7  T
     SCC iter.                  ...        0 min,  0.003 sec
     gradient                   ...        0 min,  0.001 sec
 * total energy  :   -23.2426091 Eh     change       -0.7985215E-05 Eh
   gradient norm :     0.0017940 Eh/α   predicted    -0.5162005E-05 ( -35.36%)
   displ. norm   :     0.0335139 α      lambda       -0.1193703E-04
   maximum displ.:     0.0260533 α      in ANC's #3, #2, #34, ...

........................................................................
.............................. CYCLE   54 ..............................
........................................................................

 iter      E             dE          RMSdq      gap      omega  full diag
   1    -23.4764908 -0.234765E+02  0.235E-02    2.42       0.0  T
   2    -23.4764910 -0.255033E-06  0.143E-02    2.42       1.8  T
   3    -23.4764910  0.675742E-07  0.408E-03    2.42       6.1  T
   4    -23.4764910 -0.624018E-07  0.188E-03    2.42      13.3  T
   5    -23.4764911 -0.700466E-07  0.528E-04    2.42      47.4  T
   6    -23.4764911 -0.721645E-09  0.126E-04    2.42     198.0  T
     SCC iter.                  ...        0 min,  0.003 sec
     gradient                   ...        0 min,  0.001 sec
 * total energy  :   -23.2426191 Eh     change       -0.9982089E-05 Eh
   gradient norm :     0.0015902 Eh/α   predicted    -0.5972540E-05 ( -40.17%)
   displ. norm   :     0.0401030 α      lambda       -0.6591908E-05
   maximum displ.:     0.0274233 α      in ANC's #3, #2, #34, ...

........................................................................
.............................. CYCLE   55 ..............................
........................................................................

 iter      E             dE          RMSdq      gap      omega  full diag
   1    -23.4762978 -0.234763E+02  0.248E-02    2.41       0.0  T
   2    -23.4762979 -0.936908E-07  0.155E-02    2.41       1.6  T
   3    -23.4762969  0.100675E-05  0.728E-03    2.41       3.4  T
   4    -23.4762980 -0.112020E-05  0.937E-04    2.41      26.7  T
   5    -23.4762980 -0.748165E-08  0.432E-04    2.41      57.9  T
   6    -23.4762980 -0.606271E-10  0.112E-04    2.41     223.3  T
     SCC iter.                  ...        0 min,  0.003 sec
     gradient                   ...        0 min,  0.001 sec
 * total energy  :   -23.2426265 Eh     change       -0.7400952E-05 Eh
   gradient norm :     0.0004626 Eh/α   predicted    -0.3299427E-05 ( -55.42%)
   displ. norm   :     0.0479021 α      lambda       -0.3362993E-05
   maximum displ.:     0.0307964 α      in ANC's #3, #2, #1, ...

........................................................................
.............................. CYCLE   56 ..............................
........................................................................

 iter      E             dE          RMSdq      gap      omega  full diag
   1    -23.4760340 -0.234760E+02  0.269E-02    2.41       0.0  T
   2    -23.4760341 -0.106900E-06  0.167E-02    2.41       1.5  T
   3    -23.4760333  0.809197E-06  0.655E-03    2.41       3.8  T
   4    -23.4760342 -0.909773E-06  0.103E-03    2.41      24.3  T
   5    -23.4760342 -0.866733E-08  0.475E-04    2.41      52.7  T
   6    -23.4760342 -0.591847E-10  0.117E-04    2.41     214.1  T
     SCC iter.                  ...        0 min,  0.003 sec
     gradient                   ...        0 min,  0.001 sec
 * total energy  :   -23.2426272 Eh     change       -0.6963037E-06 Eh
   gradient norm :     0.0016578 Eh/α   predicted    -0.1684830E-05 ( 141.97%)
   displ. norm   :     0.0167397 α      lambda       -0.1910451E-05
   maximum displ.:     0.0108217 α      in ANC's #2, #3, #34, ...

........................................................................
.............................. CYCLE   57 ..............................
........................................................................

 iter      E             dE          RMSdq      gap      omega  full diag
   1    -23.4762160 -0.234762E+02  0.109E-02    2.41       0.0  T
   2    -23.4762160 -0.172167E-07  0.679E-03    2.41       3.7  T
   3    -23.4762157  0.274303E-06  0.385E-03    2.41       6.5  T
   4    -23.4762161 -0.305889E-06  0.430E-04    2.41      58.1  T
   5    -23.4762161 -0.109678E-08  0.206E-04    2.41     121.3  T
     SCC iter.                  ...        0 min,  0.003 sec
     gradient                   ...        0 min,  0.001 sec
 * total energy  :   -23.2426284 Eh     change       -0.1274001E-05 Eh
   gradient norm :     0.0003866 Eh/α   predicted    -0.9545661E-06 ( -25.07%)
   displ. norm   :     0.0070228 α      lambda       -0.1789368E-06
   maximum displ.:     0.0040342 α      in ANC's #3, #2, #1, ...

   *** GEOMETRY OPTIMIZATION CONVERGED AFTER 57 ITERATIONS ***

------------------------------------------------------------------------
 total energy gain   :        -0.0543971 Eh      -34.1347 kcal/mol
 total RMSD          :         0.6396707 a0        0.3385 Å
 total power (kW/mol):        -2.5056056 (step) -429.1796 (real)
------------------------------------------------------------------------

 ANCopt (total)                0 d,  0 h,  0 min,  0.333 sec
 optimizer setup                ...        0 min,  0.000 sec (  0.030%)
 model hessian                  ...        0 min,  0.017 sec (  5.231%)
 ANC generation                 ...        0 min,  0.001 sec (  0.300%)
 coordinate transformation      ...        0 min,  0.000 sec (  0.074%)
 single point calculation       ...        0 min,  0.299 sec ( 89.973%)
 optimization log               ...        0 min,  0.005 sec (  1.395%)
 hessian update                 ...        0 min,  0.001 sec (  0.157%)
 rational function              ...        0 min,  0.007 sec (  1.954%)

================
 final structure:
================
16
 xtb: 6.6.1 (8d0f1dd)
O            2.62966144645235        0.01023572177205        0.91591477722234
O            0.97121188499365       -0.40109164834768        0.82763606513961
C            0.63235969764667       -0.40797913063777       -0.54020342651397
C           -0.64818830264046       -1.22122800260650       -0.32798302064810
C           -1.02635754288201       -0.27542009064611        0.77079455446722
C           -0.99237418020382        1.11226642836096        0.22464071113838
C            0.09671245549495        0.99268888053787       -0.86557279304601
H            2.75172130511243       -0.16177429049114        1.85116791823231
H            1.43713580242490       -0.78462566323796       -1.16965623075622
H           -1.33521240209387       -1.22725041933975       -1.17856905080844
H           -0.45205253183156       -2.23336973078422        0.01399930938406
H           -1.47744226972417       -0.54998118919596        1.70634320676652
H           -0.73460856376511        1.84101357564604        0.99241816533104
H           -1.96246248343749        1.39706791813173       -0.19565374141098
H            0.87875550014177        1.73911171499391       -0.75133607057590
H           -0.30566981570146        1.03949592584502       -1.87602037392079

 Bond Distances (Angstroems)
 ---------------------------
O1-H8=0.9587         O2-C3=1.4092         C3-O2=1.4092         C3-C4=1.5317         C3-C7=1.5345         C3-H9=1.0889         
C4-C3=1.5317         C4-C5=1.4983         C4-H10=1.0934        C4-H11=1.0862        C5-C4=1.4983         C5-C6=1.4917         
C5-H12=1.0743        C6-C5=1.4917         C6-C7=1.5456         C6-H13=1.0895        C6-H14=1.0949        C7-C3=1.5345         
C7-C6=1.5456         C7-H15=1.0871        C7-H16=1.0886        H8-O1=0.9587         H9-C3=1.0889         H10-C4=1.0934        
H11-C4=1.0862        H12-C5=1.0743        H13-C6=1.0895        H14-C6=1.0949        H15-C7=1.0871        H16-C7=1.0886        
 C  H  Rav=1.0879 sigma=0.0058  Rmin=1.0743  Rmax=1.0949     8
 C  C  Rav=1.5204 sigma=0.0213  Rmin=1.4917  Rmax=1.5456     5
 O  H  Rav=0.9587 sigma=0.0000  Rmin=0.9587  Rmax=0.9587     1
 O  C  Rav=1.4092 sigma=0.0000  Rmin=1.4092  Rmax=1.4092     1

 selected bond angles (degree)
 --------------------
C4-C3-O2= 93.96                C7-C3-O2=106.58                C7-C3-C4=102.84                H9-C3-O2=112.65                
H9-C3-C4=120.95                H9-C3-C7=116.82                C5-C4-C3= 88.71                H10-C4-C3=114.86               
H10-C4-C5=114.54               H11-C4-C3=112.79               H11-C4-C5=113.76               H11-C4-H10=110.69              
C6-C5-C4=108.24                H12-C5-C4=125.68               H12-C5-C6=124.48               C7-C6-C5=101.67                
H13-C6-C5=111.69               H13-C6-C7=112.46               H14-C6-C5=111.24               H14-C6-C7=111.94               
H14-C6-H13=107.83              C6-C7-C3= 99.61                H15-C7-C3=110.69               H15-C7-C6=112.31               
H16-C7-C3=111.41               H16-C7-C6=113.01               H16-C7-H15=109.51              

 selected dihedral angles (degree)
 ---------------------------------
C5-C4-C3-O2= 49.13            C5-C4-C3-C7=301.12            C5-C4-C3-H9=168.57            H10-C4-C3-O2=165.71           
H10-C4-C3-C7= 57.70           H10-C4-C3-H9=285.16           H11-C4-C3-O2=293.81           H11-C4-C3-C7=185.80           
H11-C4-C3-H9= 53.26           C6-C5-C4-C3= 54.11            C6-C5-C4-H10=297.24           C6-C5-C4-H11=168.53           
H12-C5-C4-C3=220.17           H12-C5-C4-H10=103.30          H12-C5-C4-H11=334.59          C7-C6-C5-C4=330.22            
C7-C6-C5-H12=163.95           H13-C6-C5-C4=210.08           H13-C6-C5-H12= 43.81          H14-C6-C5-C4= 89.54           
H14-C6-C5-H12=283.27          C6-C7-C3-O2=306.59            C6-C7-C3-C4= 44.74            C6-C7-C3-H9=179.67            
H15-C7-C3-O2= 64.98           H15-C7-C3-C4=163.14           H15-C7-C3-H9=298.07           H16-C7-C3-O2=187.09           
H16-C7-C3-C4=285.25           H16-C7-C3-H9= 60.18           C3-C7-C6-C5=350.61            C3-C7-C6-H13=110.21           
C3-C7-C6-H14=231.79           H15-C7-C6-C5=233.43           H15-C7-C6-H13=353.02          H15-C7-C6-H14=114.60          
H16-C7-C6-C5=108.92           H16-C7-C6-H13=228.52          H16-C7-C6-H14=350.10          

 CMA Distance (Angstroems)
 ---------------------------
R(CMA):  2.9341
           -------------------------------------------------
          |                Final Singlepoint                |
           -------------------------------------------------

          ...................................................
          :                      SETUP                      :
          :.................................................:
          :  # basis functions                  37          :
          :  # atomic orbitals                  37          :
          :  # shells                           23          :
          :  # electrons                        41          :
          :  max. iterations                   250          :
          :  Hamiltonian                  GFN2-xTB          :
          :  restarted?                      false          :
          :  GBSA solvation                  false          :
          :  PC potential                    false          :
          :  electronic temp.          300.0000000     K    :
          :  accuracy                    1.0000000          :
          :  -> integral cutoff          0.2500000E+02      :
          :  -> integral neglect         0.1000000E-07      :
          :  -> SCF convergence          0.1000000E-05 Eh   :
          :  -> wf. convergence          0.1000000E-03 e    :
          :  Broyden damping             0.4000000          :
          ...................................................

 iter      E             dE          RMSdq      gap      omega  full diag
   1    -23.4762161 -0.234762E+02  0.656E-05    2.41       0.0  T
   2    -23.4762161 -0.450839E-11  0.407E-05    2.41     613.5  T
   3    -23.4762161  0.331823E-11  0.332E-05    2.41     754.0  T

   *** convergence criteria satisfied after 3 iterations ***

         #    Occupation            Energy/Eh            Energy/eV
      -------------------------------------------------------------
         1        2.0000           -0.6929895             -18.8572
       ...           ...                  ...                  ...
        15        2.0000           -0.4700035             -12.7894
        16        2.0000           -0.4646410             -12.6435
        17        2.0000           -0.4562564             -12.4154
        18        2.0000           -0.4421451             -12.0314
        19        2.0000           -0.4362090             -11.8699
        20        2.0000           -0.4014927             -10.9252
        21        1.0000           -0.3298694              -8.9762 (HOMO)
        22                         -0.2413462              -6.5674 (LUMO)
        23                          0.0315534               0.8586
        24                          0.0511190               1.3910
        25                          0.0638061               1.7363
        26                          0.0883824               2.4050
       ...                                ...                  ...
        37                          0.3656749               9.9505
      -------------------------------------------------------------
                  HL-Gap            0.0885231 Eh            2.4088 eV
             Fermi-level           -0.3256444 Eh           -8.8612 eV

 SCC (total)                   0 d,  0 h,  0 min,  0.004 sec
 SCC setup                      ...        0 min,  0.000 sec (  2.384%)
 Dispersion                     ...        0 min,  0.000 sec (  1.324%)
 classical contributions        ...        0 min,  0.000 sec (  0.360%)
 integral evaluation            ...        0 min,  0.000 sec ( 11.995%)
 iterations                     ...        0 min,  0.002 sec ( 47.444%)
 molecular gradient             ...        0 min,  0.001 sec ( 32.795%)
 printout                       ...        0 min,  0.000 sec (  3.337%)

         :::::::::::::::::::::::::::::::::::::::::::::::::::::
         ::                     SUMMARY                     ::
         :::::::::::::::::::::::::::::::::::::::::::::::::::::
         :: total energy             -23.242628449696 Eh    ::
         :: gradient norm              0.000389374233 Eh/a0 ::
         :: HOMO-LUMO gap              2.408836939889 eV    ::
         ::.................................................::
         :: SCC energy               -23.476216054244 Eh    ::
         :: -> isotropic ES            0.045078011839 Eh    ::
         :: -> anisotropic ES         -0.005342420381 Eh    ::
         :: -> anisotropic XC          0.005215387544 Eh    ::
         :: -> dispersion             -0.009865956468 Eh    ::
         :: repulsion energy           0.233439202025 Eh    ::
         :: add. restraining           0.000121108250 Eh    ::
         :: total charge               0.000000000000 e     ::
         :::::::::::::::::::::::::::::::::::::::::::::::::::::

           -------------------------------------------------
          |                Property Printout                |
           -------------------------------------------------

    * Orbital Energies and Occupations

         #    Occupation            Energy/Eh            Energy/eV
      -------------------------------------------------------------
         1        2.0000           -0.6929895             -18.8572
       ...           ...                  ...                  ...
         9        2.0000           -0.5420809             -14.7508
        10        2.0000           -0.5362463             -14.5920
        11        2.0000           -0.5227001             -14.2234
        12        2.0000           -0.4985385             -13.5659
        13        2.0000           -0.4860051             -13.2249
        14        2.0000           -0.4762930             -12.9606
        15        2.0000           -0.4700035             -12.7894
        16        2.0000           -0.4646410             -12.6435
        17        2.0000           -0.4562564             -12.4154
        18        2.0000           -0.4421451             -12.0314
        19        2.0000           -0.4362090             -11.8699
        20        2.0000           -0.4014927             -10.9252
        21        1.0000           -0.3298694              -8.9762 (HOMO)
        22                         -0.2413462              -6.5674 (LUMO)
        23                          0.0315534               0.8586
        24                          0.0511190               1.3910
        25                          0.0638061               1.7363
        26                          0.0883824               2.4050
        27                          0.1087462               2.9591
        28                          0.1295191               3.5244
        29                          0.1443568               3.9281
        30                          0.1613662               4.3910
        31                          0.1833091               4.9881
        32                          0.1917188               5.2169
       ...                                ...                  ...
        37                          0.3656749               9.9505
      -------------------------------------------------------------
                  HL-Gap            0.0885231 Eh            2.4088 eV
             Fermi-level           -0.3256444 Eh           -8.8612 eV

     #   Z          covCN         q      C6AA      α(0)
     1   8 O        1.220    -0.443    22.306     6.344
     2   8 O        1.446    -0.255    18.431     5.785
     3   6 C        4.013     0.133    18.361     6.087
     4   6 C        3.861    -0.059    21.594     6.609
     5   6 C        3.319     0.016    25.536     8.046
     6   6 C        3.841    -0.055    21.538     6.602
     7   6 C        3.844    -0.070    21.798     6.641
     8   1 H        0.805     0.288     0.760     1.369
     9   1 H        0.925     0.047     2.354     2.399
    10   1 H        0.924     0.055     2.256     2.349
    11   1 H        0.925     0.061     2.185     2.311
    12   1 H        0.926     0.060     2.198     2.319
    13   1 H        0.925     0.065     2.145     2.291
    14   1 H        0.924     0.057     2.236     2.338
    15   1 H        0.925     0.063     2.167     2.302
    16   1 H        0.925     0.037     2.491     2.468

 Mol. C6AA /au·bohr⁶  :       2031.717986
 Mol. C8AA /au·bohr⁸  :      44135.624859
 Mol. α(0) /au        :         66.259979


Wiberg/Mayer (AO) data.
largest (>0.10) Wiberg bond orders for each atom

 ---------------------------------------------------------------------------
     #   Z sym  total        # sym  WBO       # sym  WBO       # sym  WBO
 ---------------------------------------------------------------------------
     1   8 O    1.847 --     8 H    0.915     2 O    0.670     5 C    0.184
     2   8 O    2.121 --     3 C    0.993     1 O    0.670     5 C    0.369
     3   6 C    3.946 --     2 O    0.993     7 C    0.985     9 H    0.961
                             4 C    0.952
     4   6 C    3.988 --     5 C    1.035    11 H    0.973     3 C    0.952
                            10 H    0.945
     5   6 C    3.725 --     6 C    1.059     4 C    1.035    12 H    0.972
                             2 O    0.369     1 O    0.184
     6   6 C    3.996 --     5 C    1.059     7 C    0.995    13 H    0.965
                            14 H    0.943
     7   6 C    3.995 --     6 C    0.995     3 C    0.985    16 H    0.980
                            15 H    0.978
     8   1 H    0.917 --     1 O    0.915
     9   1 H    0.998 --     3 C    0.961
    10   1 H    0.996 --     4 C    0.945
    11   1 H    0.996 --     4 C    0.973
    12   1 H    0.996 --     5 C    0.972
    13   1 H    0.996 --     6 C    0.965
    14   1 H    0.996 --     6 C    0.943
    15   1 H    0.996 --     7 C    0.978
    16   1 H    0.999 --     7 C    0.980
 ---------------------------------------------------------------------------

Topologies differ in total number of bonds
Writing topology from bond orders to xtbtopo.mol

molecular dipole:
                 x           y           z       tot (Debye)
 q only:       -1.331       0.010      -0.296
   full:       -1.311      -0.056      -0.153       3.359
molecular quadrupole (traceless):
                xx          xy          yy          xz          yz          zz
 q only:       -4.841      -0.396       1.849      -0.264       0.301       2.992
  q+dip:       -5.752      -0.940       1.636       1.045       0.203       4.116
   full:       -5.025      -0.718       1.037       1.142       0.162       3.988

           -------------------------------------------------
          |                Geometry Summary                 |
           -------------------------------------------------

      molecular mass/u    :      101.1239561
   center of mass at/Å    :        0.3275929      -0.0274838       0.1821115
  moments of inertia/u·Å² :        0.1141724E+03   0.2248906E+03   0.2458379E+03
rotational constants/cm⁻¹ :        0.1476507E+00   0.7495924E-01   0.6857216E-01

 * 12 selected distances

     #   Z          #   Z                                           value/Å
     3   6 C        4   6 C                                       1.5317359
     4   6 C        5   6 C                                       1.4982914
     5   6 C        6   6 C                                       1.4916813
     3   6 C        7   6 C                                       1.5344884 (max)
     3   6 C        9   1 H                                       1.0889161
     4   6 C       10   1 H                                       1.0934053
     4   6 C       11   1 H                                       1.0862100
     5   6 C       12   1 H                                       1.0742964 (min)
     6   6 C       13   1 H                                       1.0894944
     6   6 C       14   1 H                                       1.0949113
     7   6 C       15   1 H                                       1.0871010
     7   6 C       16   1 H                                       1.0886262

 * 2 distinct bonds (by element types)

   Z      Z             #   av. dist./Å        max./Å        min./Å
   1 H    6 C           8     1.0878701     1.0949113     1.0742964
   6 C    6 C           4     1.5140492     1.5344884     1.4916813


optimized geometry written to: xtbopt.xyz


           -------------------------------------------------
          | TOTAL ENERGY              -23.242628449696 Eh   |
          | GRADIENT NORM               0.000389374233 Eh/α |
          | HOMO-LUMO GAP               2.408836939889 eV   |
           -------------------------------------------------

------------------------------------------------------------------------
 * finished run on 2025/05/23 at 13:15:48.984     
------------------------------------------------------------------------
 total:
 * wall-time:     0 d,  0 h,  0 min,  0.354 sec
 *  cpu-time:     0 d,  0 h,  0 min,  2.471 sec
 * ratio c/w:     6.972 speedup
 SCF:
 * wall-time:     0 d,  0 h,  0 min,  0.010 sec
 *  cpu-time:     0 d,  0 h,  0 min,  0.070 sec
 * ratio c/w:     6.901 speedup
 ANC optimizer:
 * wall-time:     0 d,  0 h,  0 min,  0.337 sec
 *  cpu-time:     0 d,  0 h,  0 min,  2.354 sec
 * ratio c/w:     6.980 speedup

