      -----------------------------------------------------------      
     |                   =====================                   |     
     |                           x T B                           |     
     |                   =====================                   |     
     |                         S. Grimme                         |     
     |          Mulliken Center for Theoretical Chemistry        |     
     |                    University of Bonn                     |     
      -----------------------------------------------------------      

   * xtb version 6.6.1 (8d0f1dd) compiled by 'conda@1efc2f54142f' on 2023-08-01

   xtb is free software: you can redistribute it and/or modify it under
   the terms of the GNU Lesser General Public License as published by
   the Free Software Foundation, either version 3 of the License, or
   (at your option) any later version.
   
   xtb is distributed in the hope that it will be useful,
   but WITHOUT ANY WARRANTY; without even the implied warranty of
   MERCHANTABILITY or FITNESS FOR A PARTICULAR PURPOSE.  See the
   GNU Lesser General Public License for more details.
   
   Cite this work as:
   * C. Bannwarth, E. Caldeweyher, S. Ehlert, A. Hansen, P. Pracht,
     J. Seibert, S. Spicher, S. Grimme, WIREs Comput. Mol. Sci., 2020, 11,
     e01493. DOI: 10.1002/wcms.1493
   
   for GFN2-xTB:
   * C. Bannwarth, S. Ehlert and S. Grimme., J. Chem. Theory Comput., 2019,
     15, 1652-1671. DOI: 10.1021/acs.jctc.8b01176
   for GFN1-xTB:
   * S. Grimme, C. Bannwarth, P. Shushkov, J. Chem. Theory Comput., 2017,
     13, 1989-2009. DOI: 10.1021/acs.jctc.7b00118
   for GFN0-xTB:
   * P. Pracht, E. Caldeweyher, S. Ehlert, S. Grimme, ChemRxiv, 2019, preprint.
     DOI: 10.26434/chemrxiv.8326202.v1
   for GFN-FF:
   * S. Spicher and S. Grimme, Angew. Chem. Int. Ed., 2020, 59, 15665-15673.
     DOI: 10.1002/anie.202004239
   
   for ALPB and GBSA implicit solvation:
   * S. Ehlert, M. Stahn, S. Spicher, S. Grimme, J. Chem. Theory Comput.,
     2021, 17, 4250-4261. DOI: 10.1021/acs.jctc.1c00471
   
   for DFT-D4:
   * E. Caldeweyher, C. Bannwarth and S. Grimme, J. Chem. Phys., 2017,
     147, 034112. DOI: 10.1063/1.4993215
   * E. Caldeweyher, S. Ehlert, A. Hansen, H. Neugebauer, S. Spicher,
     C. Bannwarth and S. Grimme, J. Chem. Phys., 2019, 150, 154122.
     DOI: 10.1063/1.5090222
   * E. Caldeweyher, J.-M. Mewes, S. Ehlert and S. Grimme, Phys. Chem. Chem. Phys.
     2020, 22, 8499-8512. DOI: 10.1039/D0CP00502A
   
   for sTDA-xTB:
   * S. Grimme and C. Bannwarth, J. Chem. Phys., 2016, 145, 054103.
     DOI: 10.1063/1.4959605
   
   in the mass-spec context:
   * V. Asgeirsson, C. Bauer and S. Grimme, Chem. Sci., 2017, 8, 4879.
     DOI: 10.1039/c7sc00601b
   * J. Koopman and S. Grimme, ACS Omega 2019, 4, 12, 15120-15133.
     DOI: 10.1021/acsomega.9b02011
   
   for metadynamics refer to:
   * S. Grimme, J. Chem. Theory Comput., 2019, 155, 2847-2862
     DOI: 10.1021/acs.jctc.9b00143
   
   for SPH calculations refer to:
   * S. Spicher and S. Grimme, J. Chem. Theory Comput., 2021, 17, 1701-1714
     DOI: 10.1021/acs.jctc.0c01306
   
   with help from (in alphabetical order)
   P. Atkinson, C. Bannwarth, F. Bohle, G. Brandenburg, E. Caldeweyher
   M. Checinski, S. Dohm, S. Ehlert, S. Ehrlich, I. Gerasimov, C. Hölzer
   A. Katbashev, J. Koopman, C. Lavigne, S. Lehtola, F. März, M. Müller,
   F. Musil, H. Neugebauer, J. Pisarek, C. Plett, P. Pracht, F. Pultar,
   J. Seibert, P. Shushkov, S. Spicher, M. Stahn, M. Steiner, T. Strunk,
   J. Stückrath, T. Rose, and J. Unsleber
   
 * started run on 2025/05/23 at 13:15:48.629     

           -------------------------------------------------
          |                Calculation Setup                |
           -------------------------------------------------

          program call               : /gpfs/fs1/home/copan/code/autode-practice/.pixi/envs/default/bin/xtb TS_vdwLSy_ll_ad_1-4_0-1_conf164_opt_xtb.xyz --chrg 0 --uhf 1 --opt --input xcontrol_TS_vdwLSy_ll_ad_1-4_0-1_conf164_opt_xtb
          hostname                   : csed-0021
          coordinate file            : TS_vdwLSy_ll_ad_1-4_0-1_conf164_opt_xtb.xyz
          omp threads                :                     4

   ID    Z sym.   atoms
    1    8 O      1, 2
    2    6 C      3-7
    3    1 H      8-16
constraining bond 1 2 to    1.7150000 Å, actual value:    1.7149880 Å
constraining bond 2 5 to    2.0032000 Å, actual value:    2.0031811 Å

molecular fragmentation (1/2 indicates fragments):
1222222122222222
# atoms in fragment 1/2:     2    14
 fragment masses (1/2) :       17.01       84.12
CMA distance (Bohr)    :   5.710
constraining FC (au)   :  2.0000

           -------------------------------------------------
          |                 G F N 2 - x T B                 |
           -------------------------------------------------

        Reference                      10.1021/acs.jctc.8b01176
      * Hamiltonian:
        H0-scaling (s, p, d)           1.850000    2.230000    2.230000
        zeta-weighting                 0.500000
      * Dispersion:
        s8                             2.700000
        a1                             0.520000
        a2                             5.000000
        s9                             5.000000
      * Repulsion:
        kExp                           1.500000    1.000000
        rExp                           1.000000
      * Coulomb:
        alpha                          2.000000
        third order                    shell-resolved
        anisotropic                    true
        a3                             3.000000
        a5                             4.000000
        cn-shift                       1.200000
        cn-exp                         4.000000
        max-rad                        5.000000


          ...................................................
          :                      SETUP                      :
          :.................................................:
          :  # basis functions                  37          :
          :  # atomic orbitals                  37          :
          :  # shells                           23          :
          :  # electrons                        41          :
          :  max. iterations                   250          :
          :  Hamiltonian                  GFN2-xTB          :
          :  restarted?                      false          :
          :  GBSA solvation                  false          :
          :  PC potential                    false          :
          :  electronic temp.          300.0000000     K    :
          :  accuracy                    1.0000000          :
          :  -> integral cutoff          0.2500000E+02      :
          :  -> integral neglect         0.1000000E-07      :
          :  -> SCF convergence          0.1000000E-05 Eh   :
          :  -> wf. convergence          0.1000000E-03 e    :
          :  Broyden damping             0.4000000          :
          ...................................................

 iter      E             dE          RMSdq      gap      omega  full diag
   1    -23.2724496 -0.232724E+02  0.446E+00    2.18       0.0  T
   2    -23.1161802  0.156269E+00  0.358E+00    1.56       1.0  T
   3    -23.3104545 -0.194274E+00  0.288E+00    2.10       1.0  T
   4    -23.3973325 -0.868780E-01  0.834E-01    1.44       1.0  T
   5    -23.4064577 -0.912522E-02  0.247E-01    1.28       1.0  T
   6    -23.4064204  0.373068E-04  0.164E-01    1.28       1.0  T
   7    -23.4064428 -0.223992E-04  0.684E-02    1.30       1.0  T
   8    -23.4065248 -0.819519E-04  0.213E-02    1.29       1.2  T
   9    -23.4065305 -0.568895E-05  0.590E-03    1.29       4.2  T
  10    -23.4065303  0.141729E-06  0.442E-03    1.29       5.7  T
  11    -23.4065307 -0.387985E-06  0.105E-03    1.29      23.8  T
  12    -23.4065307  0.193208E-07  0.118E-03    1.29      21.2  T
  13    -23.4065307 -0.265297E-07  0.309E-04    1.29      80.9  T
  14    -23.4065307 -0.129234E-08  0.141E-04    1.29     177.8  T

   *** convergence criteria satisfied after 14 iterations ***

         #    Occupation            Energy/Eh            Energy/eV
      -------------------------------------------------------------
         1        2.0000           -0.6961471             -18.9431
       ...           ...                  ...                  ...
        15        2.0000           -0.4689469             -12.7607
        16        2.0000           -0.4624985             -12.5852
        17        2.0000           -0.4573586             -12.4454
        18        2.0000           -0.4301859             -11.7060
        19        2.0000           -0.4220513             -11.4846
        20        2.0000           -0.3865623             -10.5189
        21        1.0000           -0.3244461              -8.8286 (HOMO)
        22                         -0.2769039              -7.5349 (LUMO)
        23                          0.0252295               0.6865
        24                          0.0325316               0.8852
        25                          0.0422514               1.1497
        26                          0.0774865               2.1085
       ...                                ...                  ...
        37                          0.3514302               9.5629
      -------------------------------------------------------------
                  HL-Gap            0.0475422 Eh            1.2937 eV
             Fermi-level           -0.3280896 Eh           -8.9278 eV

 SCC (total)                   0 d,  0 h,  0 min,  0.010 sec
 SCC setup                      ...        0 min,  0.000 sec (  1.689%)
 Dispersion                     ...        0 min,  0.000 sec (  1.201%)
 classical contributions        ...        0 min,  0.000 sec (  1.094%)
 integral evaluation            ...        0 min,  0.001 sec (  5.615%)
 iterations                     ...        0 min,  0.008 sec ( 76.174%)
 molecular gradient             ...        0 min,  0.001 sec ( 12.374%)
 printout                       ...        0 min,  0.000 sec (  1.689%)

         :::::::::::::::::::::::::::::::::::::::::::::::::::::
         ::                     SUMMARY                     ::
         :::::::::::::::::::::::::::::::::::::::::::::::::::::
         :: total energy             -23.183330362672 Eh    ::
         :: gradient norm              0.091446368292 Eh/a0 ::
         :: HOMO-LUMO gap              1.293688339092 eV    ::
         ::.................................................::
         :: SCC energy               -23.406530722702 Eh    ::
         :: -> isotropic ES            0.054388939097 Eh    ::
         :: -> anisotropic ES         -0.002462251852 Eh    ::
         :: -> anisotropic XC          0.006683506602 Eh    ::
         :: -> dispersion             -0.009799170600 Eh    ::
         :: repulsion energy           0.223178723539 Eh    ::
         :: add. restraining           0.000000003582 Eh    ::
         :: total charge               0.000000000000 e     ::
         :::::::::::::::::::::::::::::::::::::::::::::::::::::

      ----------------------------------------------------------- 
     |                   =====================                   |
     |                        A N C O P T                        |
     |                   =====================                   |
     |               Approximate Normal Coordinate               |
     |                Rational Function Optimizer                |
      ----------------------------------------------------------- 

          ...................................................
          :                      SETUP                      :
          :.................................................:
          :   optimization level            normal          :
          :   max. optcycles                   200          :
          :   ANC micro-cycles                  20          :
          :   degrees of freedom                42          :
          :.................................................:
          :   RF solver                   davidson          :
          :   write xtbopt.log                true          :
          :   linear?                        false          :
          :   energy convergence         0.5000000E-05 Eh   :
          :   grad. convergence          0.1000000E-02 Eh/α :
          :   maxmium RF displ.          1.0000000          :
          :   Hlow (freq-cutoff)         0.1000000E-01      :
          :   Hmax (freq-cutoff)         5.0000000          :
          :   S6 in model hess.         20.0000000          :
          ...................................................

generating ANC from model Hessian ...
Using Lindh-Hessian (1995)
 Shifting diagonal of input Hessian by    9.9185014882107597E-003
 Lowest  eigenvalues of input Hessian
    0.000000    0.000000    0.000000    0.000000    0.000000    0.000000
    0.010000    0.013846    0.016152    0.022787    0.028366    0.038943
    0.047300    0.054835    0.057776    0.059038    0.061006    0.064569
 Highest eigenvalues
    1.287377    1.319748    1.332279    1.366811    6.124771   11.007441


........................................................................
.............................. CYCLE    1 ..............................
........................................................................

 iter      E             dE          RMSdq      gap      omega  full diag
   1    -23.4065307 -0.234065E+02  0.226E-05    1.29       0.0  T
   2    -23.4065307  0.209077E-10  0.373E-05    1.29     669.7  T
   3    -23.4065307 -0.296083E-10  0.662E-06    1.29    3774.1  T
     SCC iter.                  ...        0 min,  0.002 sec
     gradient                   ...        0 min,  0.001 sec
 * total energy  :   -23.1833304 Eh     change       -0.4004121E-09 Eh
   gradient norm :     0.0914443 Eh/α   predicted     0.0000000E+00 (-100.00%)
   displ. norm   :     0.4923927 α      lambda       -0.3334866E-01
   maximum displ.:     0.2492516 α      in ANC's #18, #16, #19, ...

........................................................................
.............................. CYCLE    2 ..............................
........................................................................

 iter      E             dE          RMSdq      gap      omega  full diag
   1    -23.4255199 -0.234255E+02  0.733E-01    1.50       0.0  T
   2    -23.4189253  0.659463E-02  0.794E-01    1.64       1.0  T
   3    -23.4307757 -0.118504E-01  0.300E-01    1.54       1.0  T
   4    -23.4315790 -0.803284E-03  0.131E-01    1.54       1.0  T
   5    -23.4316001 -0.210802E-04  0.180E-02    1.54       1.4  T
   6    -23.4316020 -0.189420E-05  0.915E-03    1.54       2.7  T
   7    -23.4316024 -0.433235E-06  0.342E-03    1.54       7.3  T
   8    -23.4316024 -0.268577E-07  0.122E-03    1.54      20.5  T
   9    -23.4316025 -0.187274E-07  0.629E-04    1.54      39.7  T
  10    -23.4316025 -0.328484E-10  0.396E-04    1.54      63.1  T
     SCC iter.                  ...        0 min,  0.005 sec
     gradient                   ...        0 min,  0.001 sec
 * total energy  :   -23.2067900 Eh     change       -0.2345963E-01 Eh
   gradient norm :     0.1322785 Eh/α   predicted    -0.2071702E-01 ( -11.69%)
   displ. norm   :     0.4366711 α      lambda       -0.1861170E-01
   maximum displ.:     0.2040015 α      in ANC's #16, #3, #6, ...

........................................................................
.............................. CYCLE    3 ..............................
........................................................................

 iter      E             dE          RMSdq      gap      omega  full diag
   1    -23.4374053 -0.234374E+02  0.562E-01    1.75       0.0  T
   2    -23.4342654  0.313992E-02  0.592E-01    1.74       1.0  T
   3    -23.4400049 -0.573946E-02  0.239E-01    1.75       1.0  T
   4    -23.4402710 -0.266123E-03  0.775E-02    1.73       1.0  T
   5    -23.4402921 -0.211301E-04  0.114E-02    1.74       2.2  T
   6    -23.4402923 -0.209939E-06  0.513E-03    1.74       4.9  T
   7    -23.4402924 -0.227651E-07  0.177E-03    1.74      14.1  T
   8    -23.4402924 -0.178526E-07  0.542E-04    1.74      46.1  T
   9    -23.4402924 -0.920984E-09  0.325E-04    1.74      76.9  T
     SCC iter.                  ...        0 min,  0.004 sec
     gradient                   ...        0 min,  0.001 sec
 * total energy  :   -23.2172383 Eh     change       -0.1044828E-01 Eh
   gradient norm :     0.1065688 Eh/α   predicted    -0.1108033E-01 (   6.05%)
   displ. norm   :     0.4702726 α      lambda       -0.1089367E-01
   maximum displ.:     0.2933917 α      in ANC's #2, #3, #31, ...

........................................................................
.............................. CYCLE    4 ..............................
........................................................................

 iter      E             dE          RMSdq      gap      omega  full diag
   1    -23.4486126 -0.234486E+02  0.463E-01    1.98       0.0  T
   2    -23.4477277  0.884916E-03  0.389E-01    2.02       1.0  T
   3    -23.4493766 -0.164889E-02  0.227E-01    2.00       1.0  T
   4    -23.4497771 -0.400453E-03  0.477E-02    2.00       1.0  T
   5    -23.4497963 -0.192242E-04  0.121E-02    2.01       2.1  T
   6    -23.4497969 -0.568830E-06  0.490E-03    2.01       5.1  T
   7    -23.4497969 -0.249160E-07  0.171E-03    2.01      14.6  T
   8    -23.4497969 -0.118297E-07  0.583E-04    2.01      42.9  T
   9    -23.4497969 -0.161568E-08  0.219E-04    2.01     114.3  T
     SCC iter.                  ...        0 min,  0.004 sec
     gradient                   ...        0 min,  0.001 sec
 * total energy  :   -23.2158426 Eh     change        0.1395690E-02 Eh
   gradient norm :     0.3663788 Eh/α   predicted    -0.6651446E-02 (-576.57%)
   displ. norm   :     0.3451137 α      lambda       -0.2634740E-01
   maximum displ.:     0.2036347 α      in ANC's #3, #6, #1, ...

........................................................................
.............................. CYCLE    5 ..............................
........................................................................

 iter      E             dE          RMSdq      gap      omega  full diag
   1    -23.4636031 -0.234636E+02  0.509E-01    1.96       0.0  T
   2    -23.4630565  0.546678E-03  0.432E-01    1.89       1.0  T
   3    -23.4647639 -0.170744E-02  0.217E-01    1.92       1.0  T
   4    -23.4650551 -0.291234E-03  0.113E-01    1.91       1.0  T
   5    -23.4651735 -0.118375E-03  0.160E-02    1.91       1.6  T
   6    -23.4651738 -0.250987E-06  0.708E-03    1.91       3.5  T
   7    -23.4651739 -0.176394E-06  0.183E-03    1.91      13.7  T
   8    -23.4651739 -0.917632E-08  0.635E-04    1.91      39.4  T
   9    -23.4651739 -0.811031E-09  0.232E-04    1.91     107.8  T
     SCC iter.                  ...        0 min,  0.004 sec
     gradient                   ...        0 min,  0.001 sec
 * total energy  :   -23.2083326 Eh     change        0.7509957E-02 Eh
   gradient norm :     0.2350764 Eh/α   predicted    -0.1474273E-01 (-296.31%)
   displ. norm   :     0.3494275 α      lambda       -0.4103329E-01
   maximum displ.:     0.1968198 α      in ANC's #2, #18, #31, ...

........................................................................
.............................. CYCLE    6 ..............................
........................................................................

 iter      E             dE          RMSdq      gap      omega  full diag
   1    -23.4448460 -0.234448E+02  0.585E-01    1.84       0.0  T
   2    -23.4439315  0.914482E-03  0.397E-01    1.80       1.0  T
   3    -23.4453740 -0.144253E-02  0.325E-01    1.86       1.0  T
   4    -23.4467063 -0.133232E-02  0.822E-02    1.82       1.0  T
   5    -23.4467184 -0.121096E-04  0.219E-02    1.82       1.1  T
   6    -23.4467197 -0.125425E-05  0.846E-03    1.82       3.0  T
   7    -23.4467197 -0.506114E-07  0.317E-03    1.82       7.9  T
   8    -23.4467198 -0.641622E-07  0.997E-04    1.82      25.1  T
   9    -23.4467198 -0.369163E-08  0.397E-04    1.82      63.0  T
     SCC iter.                  ...        0 min,  0.004 sec
     gradient                   ...        0 min,  0.001 sec
 * total energy  :   -23.2189631 Eh     change       -0.1063044E-01 Eh
   gradient norm :     0.2312708 Eh/α   predicted    -0.2302172E-01 ( 116.56%)
   displ. norm   :     0.2206646 α      lambda       -0.1068689E-01
   maximum displ.:     0.1754431 α      in ANC's #2, #3, #6, ...

........................................................................
.............................. CYCLE    7 ..............................
........................................................................

 iter      E             dE          RMSdq      gap      omega  full diag
   1    -23.4515573 -0.234516E+02  0.309E-01    1.89       0.0  T
   2    -23.4505383  0.101900E-02  0.334E-01    1.95       1.0  T
   3    -23.4526701 -0.213172E-02  0.110E-01    1.91       1.0  T
   4    -23.4527152 -0.451838E-04  0.295E-02    1.92       1.0  T
   5    -23.4527187 -0.351080E-05  0.781E-03    1.92       3.2  T
   6    -23.4527191 -0.313687E-06  0.318E-03    1.92       7.9  T
   7    -23.4527191 -0.109389E-07  0.130E-03    1.92      19.3  T
   8    -23.4527191 -0.544891E-08  0.405E-04    1.92      61.7  T
   9    -23.4527191 -0.713666E-09  0.211E-04    1.92     118.2  T
     SCC iter.                  ...        0 min,  0.004 sec
     gradient                   ...        0 min,  0.001 sec
 * total energy  :   -23.2244989 Eh     change       -0.5535837E-02 Eh
   gradient norm :     0.0678806 Eh/α   predicted    -0.5603643E-02 (   1.22%)
   displ. norm   :     0.2527240 α      lambda       -0.3221943E-02
   maximum displ.:     0.1643901 α      in ANC's #3, #4, #2, ...

........................................................................
.............................. CYCLE    8 ..............................
........................................................................

 iter      E             dE          RMSdq      gap      omega  full diag
   1    -23.4563212 -0.234563E+02  0.165E-01    2.03       0.0  T
   2    -23.4563313 -0.100931E-04  0.106E-01    2.03       1.0  T
   3    -23.4562561  0.751550E-04  0.649E-02    2.03       1.0  T
   4    -23.4563314 -0.753060E-04  0.219E-02    2.03       1.1  T
   5    -23.4563401 -0.868960E-05  0.397E-03    2.03       6.3  T
   6    -23.4563402 -0.247823E-07  0.171E-03    2.03      14.6  T
   7    -23.4563402 -0.173002E-07  0.652E-04    2.03      38.3  T
   8    -23.4563402 -0.177823E-08  0.353E-04    2.03      70.8  T
     SCC iter.                  ...        0 min,  0.004 sec
     gradient                   ...        0 min,  0.001 sec
 * total energy  :   -23.2262011 Eh     change       -0.1702173E-02 Eh
   gradient norm :     0.1305582 Eh/α   predicted    -0.1713861E-02 (   0.69%)
   displ. norm   :     0.1269775 α      lambda       -0.2324438E-02
   maximum displ.:     0.0710365 α      in ANC's #3, #4, #31, ...

........................................................................
.............................. CYCLE    9 ..............................
........................................................................

 iter      E             dE          RMSdq      gap      omega  full diag
   1    -23.4603420 -0.234603E+02  0.901E-02    2.10       0.0  T
   2    -23.4603115  0.304196E-04  0.795E-02    2.09       1.0  T
   3    -23.4603832 -0.716702E-04  0.418E-02    2.10       1.0  T
   4    -23.4603923 -0.911664E-05  0.473E-03    2.10       5.3  T
   5    -23.4603925 -0.134613E-06  0.174E-03    2.10      14.4  T
   6    -23.4603925 -0.246577E-08  0.464E-04    2.10      53.9  T
   7    -23.4603925 -0.735703E-09  0.173E-04    2.10     144.2  T
     SCC iter.                  ...        0 min,  0.003 sec
     gradient                   ...        0 min,  0.001 sec
 * total energy  :   -23.2278220 Eh     change       -0.1620975E-02 Eh
   gradient norm :     0.0530268 Eh/α   predicted    -0.1180958E-02 ( -27.15%)
   displ. norm   :     0.2975594 α      lambda       -0.2218652E-02
   maximum displ.:     0.1784247 α      in ANC's #1, #3, #4, ...

........................................................................
.............................. CYCLE   10 ..............................
........................................................................

 iter      E             dE          RMSdq      gap      omega  full diag
   1    -23.4569978 -0.234570E+02  0.259E-01    2.20       0.0  T
   2    -23.4570568 -0.589437E-04  0.146E-01    2.21       1.0  T
   3    -23.4569509  0.105837E-03  0.105E-01    2.22       1.0  T
   4    -23.4570637 -0.112785E-03  0.393E-02    2.21       1.0  T
   5    -23.4570894 -0.256774E-04  0.658E-03    2.21       3.8  T
   6    -23.4570894 -0.288173E-07  0.148E-03    2.21      16.9  T
   7    -23.4570894 -0.415813E-08  0.611E-04    2.21      40.9  T
   8    -23.4570894 -0.997634E-09  0.172E-04    2.21     145.7  T
     SCC iter.                  ...        0 min,  0.004 sec
     gradient                   ...        0 min,  0.001 sec
 * total energy  :   -23.2281520 Eh     change       -0.3299711E-03 Eh
   gradient norm :     0.0773880 Eh/α   predicted    -0.1207532E-02 ( 265.95%)
   displ. norm   :     0.1562503 α      lambda       -0.2366413E-02
   maximum displ.:     0.1471864 α      in ANC's #1, #2, #3, ...

........................................................................
.............................. CYCLE   11 ..............................
........................................................................

 iter      E             dE          RMSdq      gap      omega  full diag
   1    -23.4619452 -0.234619E+02  0.130E-01    2.23       0.0  T
   2    -23.4619580 -0.128539E-04  0.762E-02    2.22       1.0  T
   3    -23.4619451  0.129033E-04  0.367E-02    2.23       1.0  T
   4    -23.4619575 -0.123752E-04  0.190E-02    2.22       1.3  T
   5    -23.4619632 -0.569598E-05  0.546E-03    2.22       4.6  T
   6    -23.4619633 -0.807763E-07  0.138E-03    2.22      18.1  T
   7    -23.4619633 -0.815522E-08  0.645E-04    2.22      38.8  T
   8    -23.4619633 -0.177880E-08  0.204E-04    2.22     122.7  T
     SCC iter.                  ...        0 min,  0.004 sec
     gradient                   ...        0 min,  0.001 sec
 * total energy  :   -23.2290619 Eh     change       -0.9099265E-03 Eh
   gradient norm :     0.0285030 Eh/α   predicted    -0.1212095E-02 (  33.21%)
   displ. norm   :     0.0835481 α      lambda       -0.4235573E-03
   maximum displ.:     0.0772972 α      in ANC's #1, #2, #18, ...

........................................................................
.............................. CYCLE   12 ..............................
........................................................................

 iter      E             dE          RMSdq      gap      omega  full diag
   1    -23.4610987 -0.234611E+02  0.636E-02    2.24       0.0  T
   2    -23.4610948  0.395540E-05  0.417E-02    2.24       1.0  T
   3    -23.4610968 -0.202863E-05  0.356E-02    2.25       1.0  T
   4    -23.4611110 -0.142055E-04  0.347E-03    2.24       7.2  T
   5    -23.4611110 -0.446136E-07  0.154E-03    2.24      16.3  T
   6    -23.4611110 -0.638273E-08  0.607E-04    2.24      41.2  T
   7    -23.4611110 -0.531717E-09  0.140E-04    2.24     178.6  T
     SCC iter.                  ...        0 min,  0.004 sec
     gradient                   ...        0 min,  0.001 sec
 * total energy  :   -23.2293561 Eh     change       -0.2942069E-03 Eh
   gradient norm :     0.0107639 Eh/α   predicted    -0.2132564E-03 ( -27.51%)
   displ. norm   :     0.3049958 α      lambda       -0.1614022E-02
   maximum displ.:     0.1958420 α      in ANC's #1, #3, #2, ...

........................................................................
.............................. CYCLE   13 ..............................
........................................................................

 iter      E             dE          RMSdq      gap      omega  full diag
   1    -23.4545705 -0.234546E+02  0.259E-01    2.35       0.0  T
   2    -23.4545973 -0.267899E-04  0.166E-01    2.38       1.0  T
   3    -23.4544217  0.175685E-03  0.114E-01    2.35       1.0  T
   4    -23.4546337 -0.212064E-03  0.293E-02    2.37       1.0  T
   5    -23.4546455 -0.117534E-04  0.629E-03    2.37       4.0  T
   6    -23.4546455 -0.568133E-07  0.168E-03    2.37      14.9  T
   7    -23.4546455 -0.717513E-08  0.698E-04    2.37      35.8  T
   8    -23.4546455 -0.131426E-08  0.334E-04    2.37      74.9  T
     SCC iter.                  ...        0 min,  0.004 sec
     gradient                   ...        0 min,  0.001 sec
 * total energy  :   -23.2284646 Eh     change        0.8915835E-03 Eh
   gradient norm :     0.1245069 Eh/α   predicted    -0.8820934E-03 (-198.94%)
   displ. norm   :     0.1981205 α      lambda       -0.4375553E-02
   maximum displ.:     0.1523114 α      in ANC's #1, #3, #18, ...

........................................................................
.............................. CYCLE   14 ..............................
........................................................................

 iter      E             dE          RMSdq      gap      omega  full diag
   1    -23.4614733 -0.234615E+02  0.172E-01    2.32       0.0  T
   2    -23.4614870 -0.136749E-04  0.111E-01    2.30       1.0  T
   3    -23.4614124  0.745758E-04  0.785E-02    2.32       1.0  T
   4    -23.4615120 -0.995811E-04  0.216E-02    2.31       1.2  T
   5    -23.4615171 -0.514082E-05  0.629E-03    2.31       4.0  T
   6    -23.4615172 -0.604326E-07  0.136E-03    2.31      18.3  T
   7    -23.4615172 -0.611884E-08  0.684E-04    2.31      36.6  T
   8    -23.4615172 -0.178697E-08  0.245E-04    2.31     102.2  T
     SCC iter.                  ...        0 min,  0.004 sec
     gradient                   ...        0 min,  0.001 sec
 * total energy  :   -23.2301064 Eh     change       -0.1641880E-02 Eh
   gradient norm :     0.0148309 Eh/α   predicted    -0.2273649E-02 (  38.48%)
   displ. norm   :     0.0833228 α      lambda       -0.4434737E-03
   maximum displ.:     0.0668064 α      in ANC's #2, #3, #1, ...

........................................................................
.............................. CYCLE   15 ..............................
........................................................................

 iter      E             dE          RMSdq      gap      omega  full diag
   1    -23.4617543 -0.234618E+02  0.591E-02    2.34       0.0  T
   2    -23.4617564 -0.218129E-05  0.367E-02    2.35       1.0  T
   3    -23.4617513  0.515119E-05  0.203E-02    2.34       1.2  T
   4    -23.4617563 -0.501070E-05  0.794E-03    2.35       3.1  T
   5    -23.4617575 -0.120178E-05  0.107E-03    2.34      23.4  T
   6    -23.4617575 -0.118949E-08  0.479E-04    2.34      52.2  T
   7    -23.4617575 -0.353978E-09  0.179E-04    2.34     139.7  T
     SCC iter.                  ...        0 min,  0.003 sec
     gradient                   ...        0 min,  0.001 sec
 * total energy  :   -23.2305333 Eh     change       -0.4268624E-03 Eh
   gradient norm :     0.0126128 Eh/α   predicted    -0.2232790E-03 ( -47.69%)
   displ. norm   :     0.6530106 α      lambda       -0.3498643E-02
   maximum displ.:     0.5177661 α      in ANC's #2, #3, #18, ...

........................................................................
.............................. CYCLE   16 ..............................
........................................................................

 iter      E             dE          RMSdq      gap      omega  full diag
   1    -23.4508809 -0.234509E+02  0.460E-01    2.48       0.0  T
   2    -23.4511015 -0.220624E-03  0.304E-01    2.57       1.0  T
   3    -23.4510085  0.929382E-04  0.204E-01    2.52       1.0  T
   4    -23.4514549 -0.446355E-03  0.687E-02    2.55       1.0  T
   5    -23.4515020 -0.471354E-04  0.864E-03    2.55       2.9  T
   6    -23.4515021 -0.111447E-06  0.371E-03    2.55       6.7  T
   7    -23.4515022 -0.161469E-07  0.132E-03    2.55      18.9  T
   8    -23.4515022 -0.476494E-08  0.405E-04    2.55      61.8  T
   9    -23.4515022 -0.466457E-09  0.177E-04    2.55     140.9  T
     SCC iter.                  ...        0 min,  0.004 sec
     gradient                   ...        0 min,  0.001 sec
 * total energy  :   -23.2257750 Eh     change        0.4758339E-02 Eh
   gradient norm :     0.2564321 Eh/α   predicted    -0.2495286E-02 (-152.44%)
   displ. norm   :     0.3376420 α      lambda       -0.1843265E-01
   maximum displ.:     0.2058378 α      in ANC's #2, #3, #18, ...

........................................................................
.............................. CYCLE   17 ..............................
........................................................................

 iter      E             dE          RMSdq      gap      omega  full diag
   1    -23.4621722 -0.234622E+02  0.315E-01    2.50       0.0  T
   2    -23.4622280 -0.558235E-04  0.240E-01    2.42       1.0  T
   3    -23.4626457 -0.417634E-03  0.132E-01    2.46       1.0  T
   4    -23.4627484 -0.102710E-03  0.492E-02    2.44       1.0  T
   5    -23.4627656 -0.171783E-04  0.934E-03    2.44       2.7  T
   6    -23.4627657 -0.906095E-07  0.358E-03    2.44       7.0  T
   7    -23.4627657 -0.185050E-07  0.115E-03    2.44      21.8  T
   8    -23.4627657 -0.240837E-08  0.437E-04    2.44      57.2  T
   9    -23.4627657 -0.753264E-09  0.151E-04    2.44     165.2  T
     SCC iter.                  ...        0 min,  0.004 sec
     gradient                   ...        0 min,  0.001 sec
 * total energy  :   -23.2318490 Eh     change       -0.6074000E-02 Eh
   gradient norm :     0.0309988 Eh/α   predicted    -0.1026699E-01 (  69.03%)
   displ. norm   :     0.1312043 α      lambda       -0.8728792E-03
   maximum displ.:     0.0929352 α      in ANC's #1, #3, #4, ...

........................................................................
.............................. CYCLE   18 ..............................
........................................................................

 iter      E             dE          RMSdq      gap      omega  full diag
   1    -23.4658379 -0.234658E+02  0.106E-01    2.47       0.0  T
   2    -23.4658308  0.713675E-05  0.780E-02    2.50       1.0  T
   3    -23.4659229 -0.921252E-04  0.433E-02    2.48       1.0  T
   4    -23.4659351 -0.122286E-04  0.910E-03    2.49       2.7  T
   5    -23.4659353 -0.224336E-06  0.308E-03    2.49       8.1  T
   6    -23.4659354 -0.337619E-07  0.133E-03    2.49      18.8  T
   7    -23.4659354 -0.174949E-08  0.461E-04    2.49      54.3  T
   8    -23.4659354 -0.581434E-09  0.139E-04    2.49     180.5  T
     SCC iter.                  ...        0 min,  0.004 sec
     gradient                   ...        0 min,  0.001 sec
 * total energy  :   -23.2319809 Eh     change       -0.1318888E-03 Eh
   gradient norm :     0.0502753 Eh/α   predicted    -0.4439530E-03 ( 236.61%)
   displ. norm   :     0.1321539 α      lambda       -0.1008054E-02
   maximum displ.:     0.0964045 α      in ANC's #2, #1, #6, ...

........................................................................
.............................. CYCLE   19 ..............................
........................................................................

 iter      E             dE          RMSdq      gap      omega  full diag
   1    -23.4644777 -0.234645E+02  0.930E-02    2.52       0.0  T
   2    -23.4644815 -0.378717E-05  0.546E-02    2.52       1.0  T
   3    -23.4644735  0.796627E-05  0.259E-02    2.52       1.0  T
   4    -23.4644817 -0.822822E-05  0.865E-03    2.52       2.9  T
   5    -23.4644831 -0.138573E-05  0.192E-03    2.52      13.0  T
   6    -23.4644831 -0.199668E-08  0.683E-04    2.52      36.6  T
   7    -23.4644831 -0.120189E-08  0.205E-04    2.52     122.1  T
     SCC iter.                  ...        0 min,  0.003 sec
     gradient                   ...        0 min,  0.001 sec
 * total energy  :   -23.2327644 Eh     change       -0.7835001E-03 Eh
   gradient norm :     0.0323355 Eh/α   predicted    -0.5128251E-03 ( -34.55%)
   displ. norm   :     0.2962545 α      lambda       -0.1291948E-02
   maximum displ.:     0.2583155 α      in ANC's #2, #18, #42, ...

........................................................................
.............................. CYCLE   20 ..............................
........................................................................

 iter      E             dE          RMSdq      gap      omega  full diag
   1    -23.4607987 -0.234608E+02  0.197E-01    2.58       0.0  T
   2    -23.4608315 -0.328327E-04  0.118E-01    2.60       1.0  T
   3    -23.4607875  0.440340E-04  0.638E-02    2.58       1.0  T
   4    -23.4608345 -0.469454E-04  0.249E-02    2.60       1.0  T
   5    -23.4608446 -0.101048E-04  0.380E-03    2.60       6.6  T
   6    -23.4608446 -0.197031E-07  0.164E-03    2.60      15.2  T
   7    -23.4608446 -0.503444E-08  0.444E-04    2.60      56.3  T
   8    -23.4608446 -0.406839E-09  0.165E-04    2.60     151.2  T
     SCC iter.                  ...        0 min,  0.004 sec
     gradient                   ...        0 min,  0.001 sec
 * total energy  :   -23.2330241 Eh     change       -0.2597893E-03 Eh
   gradient norm :     0.0715232 Eh/α   predicted    -0.7026623E-03 ( 170.47%)
   displ. norm   :     0.0812682 α      lambda       -0.1191171E-02
   maximum displ.:     0.0512025 α      in ANC's #2, #6, #1, ...
 * RMSD in coord.:     0.4583585 α      energy gain  -0.4969378E-01 Eh

generating ANC from model Hessian ...
Using Lindh-Hessian (1995)
 Shifting diagonal of input Hessian by    9.4080360725226388E-003
 Lowest  eigenvalues of input Hessian
    0.000000    0.000000    0.000000    0.000000    0.000000    0.000000
    0.010000    0.013116    0.018844    0.023777    0.027677    0.037263
    0.048838    0.054508    0.056747    0.057989    0.060223    0.064438
 Highest eigenvalues
    1.274818    1.352303    1.374821    1.407647    4.577005   12.338725


........................................................................
.............................. CYCLE   21 ..............................
........................................................................

 iter      E             dE          RMSdq      gap      omega  full diag
   1    -23.4641276 -0.234641E+02  0.705E-02    2.60       0.0  T
   2    -23.4641318 -0.420393E-05  0.462E-02    2.59       1.0  T
   3    -23.4641265  0.531481E-05  0.303E-02    2.60       1.0  T
   4    -23.4641392 -0.126836E-04  0.790E-03    2.59       3.2  T
   5    -23.4641396 -0.485550E-06  0.223E-03    2.59      11.2  T
   6    -23.4641396 -0.546437E-08  0.625E-04    2.59      40.0  T
   7    -23.4641396 -0.975191E-09  0.286E-04    2.59      87.5  T
     SCC iter.                  ...        0 min,  0.003 sec
     gradient                   ...        0 min,  0.001 sec
 * total energy  :   -23.2336979 Eh     change       -0.6737874E-03 Eh
   gradient norm :     0.0220338 Eh/α   predicted     0.0000000E+00 (-100.00%)
   displ. norm   :     0.2899687 α      lambda       -0.1606451E-02
   maximum displ.:     0.2171317 α      in ANC's #1, #3, #2, ...

........................................................................
.............................. CYCLE   22 ..............................
........................................................................

 iter      E             dE          RMSdq      gap      omega  full diag
   1    -23.4652290 -0.234652E+02  0.177E-01    2.67       0.0  T
   2    -23.4652486 -0.196151E-04  0.112E-01    2.69       1.0  T
   3    -23.4651863  0.623239E-04  0.743E-02    2.68       1.0  T
   4    -23.4652681 -0.818481E-04  0.138E-02    2.69       1.8  T
   5    -23.4652707 -0.259373E-05  0.322E-03    2.69       7.8  T
   6    -23.4652707 -0.199939E-07  0.149E-03    2.69      16.8  T
   7    -23.4652707 -0.299727E-08  0.546E-04    2.69      45.8  T
   8    -23.4652707 -0.746898E-09  0.141E-04    2.69     176.8  T
     SCC iter.                  ...        0 min,  0.004 sec
     gradient                   ...        0 min,  0.001 sec
 * total energy  :   -23.2348699 Eh     change       -0.1171955E-02 Eh
   gradient norm :     0.0367939 Eh/α   predicted    -0.8707670E-03 ( -25.70%)
   displ. norm   :     0.3456532 α      lambda       -0.1564345E-02
   maximum displ.:     0.2789133 α      in ANC's #1, #2, #3, ...

........................................................................
.............................. CYCLE   23 ..............................
........................................................................

 iter      E             dE          RMSdq      gap      omega  full diag
   1    -23.4665227 -0.234665E+02  0.175E-01    2.70       0.0  T
   2    -23.4665459 -0.231640E-04  0.110E-01    2.71       1.0  T
   3    -23.4665078  0.380865E-04  0.537E-02    2.70       1.0  T
   4    -23.4665497 -0.419823E-04  0.167E-02    2.72       1.5  T
   5    -23.4665547 -0.495089E-05  0.365E-03    2.71       6.8  T
   6    -23.4665547 -0.308390E-07  0.193E-03    2.71      12.9  T
   7    -23.4665547 -0.937698E-08  0.793E-04    2.71      31.5  T
   8    -23.4665547 -0.341968E-08  0.327E-04    2.71      76.4  T
     SCC iter.                  ...        0 min,  0.004 sec
     gradient                   ...        0 min,  0.001 sec
 * total energy  :   -23.2359960 Eh     change       -0.1126095E-02 Eh
   gradient norm :     0.0574671 Eh/α   predicted    -0.8756276E-03 ( -22.24%)
   displ. norm   :     0.3343202 α      lambda       -0.2222332E-02
   maximum displ.:     0.2306222 α      in ANC's #1, #2, #3, ...

........................................................................
.............................. CYCLE   24 ..............................
........................................................................

 iter      E             dE          RMSdq      gap      omega  full diag
   1    -23.4694657 -0.234695E+02  0.155E-01    2.72       0.0  T
   2    -23.4694778 -0.120400E-04  0.958E-02    2.70       1.0  T
   3    -23.4694321  0.456488E-04  0.677E-02    2.72       1.0  T
   4    -23.4694968 -0.647046E-04  0.977E-03    2.71       2.6  T
   5    -23.4694979 -0.112540E-05  0.369E-03    2.71       6.8  T
   6    -23.4694980 -0.158789E-07  0.106E-03    2.71      23.5  T
   7    -23.4694980 -0.539360E-08  0.479E-04    2.71      52.2  T
   8    -23.4694980 -0.104211E-08  0.245E-04    2.71     102.0  T
     SCC iter.                  ...        0 min,  0.004 sec
     gradient                   ...        0 min,  0.001 sec
 * total energy  :   -23.2374815 Eh     change       -0.1485504E-02 Eh
   gradient norm :     0.0479018 Eh/α   predicted    -0.1235362E-02 ( -16.84%)
   displ. norm   :     0.6649110 α      lambda       -0.3088333E-02
   maximum displ.:     0.5498462 α      in ANC's #1, #2, #3, ...

........................................................................
.............................. CYCLE   25 ..............................
........................................................................

 iter      E             dE          RMSdq      gap      omega  full diag
   1    -23.4670434 -0.234670E+02  0.311E-01    2.52       0.0  T
   2    -23.4670785 -0.351369E-04  0.247E-01    2.57       1.0  T
   3    -23.4674236 -0.345123E-03  0.142E-01    2.53       1.0  T
   4    -23.4675251 -0.101457E-03  0.314E-02    2.55       1.0  T
   5    -23.4675366 -0.115391E-04  0.684E-03    2.54       3.7  T
   6    -23.4675367 -0.839526E-07  0.325E-03    2.54       7.7  T
   7    -23.4675367 -0.259898E-07  0.140E-03    2.54      17.9  T
   8    -23.4675368 -0.891437E-08  0.605E-04    2.54      41.3  T
   9    -23.4675368 -0.156639E-08  0.295E-04    2.54      84.7  T
     SCC iter.                  ...        0 min,  0.004 sec
     gradient                   ...        0 min,  0.001 sec
 * total energy  :   -23.2345008 Eh     change        0.2980651E-02 Eh
   gradient norm :     0.2910067 Eh/α   predicted    -0.2226839E-02 (-174.71%)
   displ. norm   :     0.2750434 α      lambda       -0.1204581E-01
   maximum displ.:     0.2473399 α      in ANC's #1, #2, #18, ...

........................................................................
.............................. CYCLE   26 ..............................
........................................................................

 iter      E             dE          RMSdq      gap      omega  full diag
   1    -23.4714367 -0.234714E+02  0.179E-01    2.76       0.0  T
   2    -23.4714981 -0.613617E-04  0.153E-01    2.71       1.0  T
   3    -23.4717370 -0.238900E-03  0.762E-02    2.74       1.0  T
   4    -23.4717432 -0.623798E-05  0.187E-02    2.73       1.3  T
   5    -23.4717462 -0.299110E-05  0.437E-03    2.73       5.7  T
   6    -23.4717463 -0.544933E-07  0.197E-03    2.73      12.7  T
   7    -23.4717463 -0.881788E-08  0.854E-04    2.73      29.3  T
   8    -23.4717463 -0.270058E-08  0.363E-04    2.73      68.9  T
     SCC iter.                  ...        0 min,  0.004 sec
     gradient                   ...        0 min,  0.001 sec
 * total energy  :   -23.2388228 Eh     change       -0.4321954E-02 Eh
   gradient norm :     0.0521540 Eh/α   predicted    -0.6478536E-02 (  49.90%)
   displ. norm   :     0.0884520 α      lambda       -0.1336727E-02
   maximum displ.:     0.0580437 α      in ANC's #1, #18, #17, ...

........................................................................
.............................. CYCLE   27 ..............................
........................................................................

 iter      E             dE          RMSdq      gap      omega  full diag
   1    -23.4742329 -0.234742E+02  0.689E-02    2.67       0.0  T
   2    -23.4742362 -0.331618E-05  0.451E-02    2.66       1.0  T
   3    -23.4742343  0.195960E-05  0.314E-02    2.67       1.0  T
   4    -23.4742457 -0.114017E-04  0.581E-03    2.66       4.3  T
   5    -23.4742459 -0.198155E-06  0.266E-03    2.66       9.4  T
   6    -23.4742459 -0.231093E-07  0.106E-03    2.66      23.7  T
   7    -23.4742459 -0.385034E-08  0.407E-04    2.66      61.5  T
   8    -23.4742459 -0.902691E-09  0.215E-04    2.66     116.3  T
     SCC iter.                  ...        0 min,  0.004 sec
     gradient                   ...        0 min,  0.001 sec
 * total energy  :   -23.2391375 Eh     change       -0.3147051E-03 Eh
   gradient norm :     0.0617730 Eh/α   predicted    -0.6735923E-03 ( 114.04%)
   displ. norm   :     0.2752187 α      lambda       -0.1410763E-02
   maximum displ.:     0.2004292 α      in ANC's #2, #3, #1, ...

........................................................................
.............................. CYCLE   28 ..............................
........................................................................

 iter      E             dE          RMSdq      gap      omega  full diag
   1    -23.4656543 -0.234657E+02  0.201E-01    2.64       0.0  T
   2    -23.4656648 -0.104680E-04  0.115E-01    2.62       1.0  T
   3    -23.4655758  0.889723E-04  0.969E-02    2.65       1.0  T
   4    -23.4657057 -0.129916E-03  0.108E-02    2.63       2.3  T
   5    -23.4657063 -0.524871E-06  0.530E-03    2.63       4.7  T
   6    -23.4657063 -0.432218E-07  0.189E-03    2.63      13.2  T
   7    -23.4657063 -0.716981E-08  0.689E-04    2.63      36.3  T
   8    -23.4657063 -0.182141E-08  0.260E-04    2.63      96.0  T
     SCC iter.                  ...        0 min,  0.004 sec
     gradient                   ...        0 min,  0.001 sec
 * total energy  :   -23.2380303 Eh     change        0.1107174E-02 Eh
   gradient norm :     0.0868615 Eh/α   predicted    -0.7588099E-03 (-168.54%)
   displ. norm   :     0.1485969 α      lambda       -0.4635060E-02
   maximum displ.:     0.0984202 α      in ANC's #1, #3, #6, ...

........................................................................
.............................. CYCLE   29 ..............................
........................................................................

 iter      E             dE          RMSdq      gap      omega  full diag
   1    -23.4732149 -0.234732E+02  0.159E-01    2.64       0.0  T
   2    -23.4732392 -0.243327E-04  0.965E-02    2.66       1.0  T
   3    -23.4733203 -0.810711E-04  0.692E-02    2.64       1.0  T
   4    -23.4733614 -0.411331E-04  0.166E-02    2.65       1.5  T
   5    -23.4733625 -0.104231E-05  0.553E-03    2.65       4.5  T
   6    -23.4733625 -0.414122E-07  0.208E-03    2.65      12.0  T
   7    -23.4733625 -0.654811E-08  0.666E-04    2.65      37.5  T
   8    -23.4733625 -0.134190E-08  0.203E-04    2.65     123.2  T
     SCC iter.                  ...        0 min,  0.004 sec
     gradient                   ...        0 min,  0.001 sec
 * total energy  :   -23.2399766 Eh     change       -0.1946230E-02 Eh
   gradient norm :     0.0886178 Eh/α   predicted    -0.2368703E-02 (  21.71%)
   displ. norm   :     0.0825119 α      lambda       -0.8364090E-03
   maximum displ.:     0.0533740 α      in ANC's #2, #1, #4, ...

........................................................................
.............................. CYCLE   30 ..............................
........................................................................

 iter      E             dE          RMSdq      gap      omega  full diag
   1    -23.4740155 -0.234740E+02  0.541E-02    2.62       0.0  T
   2    -23.4740149  0.597690E-06  0.401E-02    2.61       1.0  T
   3    -23.4740310 -0.160335E-04  0.231E-02    2.62       1.1  T
   4    -23.4740340 -0.308663E-05  0.269E-03    2.61       9.3  T
   5    -23.4740341 -0.221827E-07  0.137E-03    2.61      18.2  T
   6    -23.4740341 -0.528929E-08  0.583E-04    2.61      42.9  T
   7    -23.4740341 -0.142784E-08  0.260E-04    2.61      96.2  T
     SCC iter.                  ...        0 min,  0.003 sec
     gradient                   ...        0 min,  0.001 sec
 * total energy  :   -23.2404787 Eh     change       -0.5021355E-03 Eh
   gradient norm :     0.0209593 Eh/α   predicted    -0.4210522E-03 ( -16.15%)
   displ. norm   :     0.2650122 α      lambda       -0.7340692E-03
   maximum displ.:     0.1856551 α      in ANC's #1, #2, #35, ...

........................................................................
.............................. CYCLE   31 ..............................
........................................................................

 iter      E             dE          RMSdq      gap      omega  full diag
   1    -23.4726650 -0.234727E+02  0.120E-01    2.55       0.0  T
   2    -23.4726692 -0.416274E-05  0.720E-02    2.54       1.0  T
   3    -23.4726435  0.256901E-04  0.431E-02    2.55       1.0  T
   4    -23.4726723 -0.288228E-04  0.827E-03    2.54       3.0  T
   5    -23.4726736 -0.125769E-05  0.182E-03    2.54      13.7  T
   6    -23.4726736 -0.530535E-08  0.640E-04    2.54      39.1  T
   7    -23.4726736 -0.161641E-08  0.302E-04    2.54      82.7  T
     SCC iter.                  ...        0 min,  0.003 sec
     gradient                   ...        0 min,  0.001 sec
 * total energy  :   -23.2409460 Eh     change       -0.4672844E-03 Eh
   gradient norm :     0.0424667 Eh/α   predicted    -0.3928120E-03 ( -15.94%)
   displ. norm   :     0.2261079 α      lambda       -0.7476795E-03
   maximum displ.:     0.1379914 α      in ANC's #1, #2, #6, ...

........................................................................
.............................. CYCLE   32 ..............................
........................................................................

 iter      E             dE          RMSdq      gap      omega  full diag
   1    -23.4722813 -0.234723E+02  0.995E-02    2.54       0.0  T
   2    -23.4722812  0.347867E-07  0.613E-02    2.52       1.0  T
   3    -23.4722682  0.130567E-04  0.509E-02    2.53       1.0  T
   4    -23.4723004 -0.322707E-04  0.431E-03    2.53       5.8  T
   5    -23.4723006 -0.180486E-06  0.144E-03    2.53      17.4  T
   6    -23.4723006 -0.570229E-08  0.589E-04    2.53      42.4  T
   7    -23.4723006 -0.562363E-09  0.214E-04    2.53     116.7  T
     SCC iter.                  ...        0 min,  0.004 sec
     gradient                   ...        0 min,  0.001 sec
 * total energy  :   -23.2414456 Eh     change       -0.4996772E-03 Eh
   gradient norm :     0.0226532 Eh/α   predicted    -0.3929513E-03 ( -21.36%)
   displ. norm   :     0.2518334 α      lambda       -0.8745819E-03
   maximum displ.:     0.1750643 α      in ANC's #1, #2, #6, ...

........................................................................
.............................. CYCLE   33 ..............................
........................................................................

 iter      E             dE          RMSdq      gap      omega  full diag
   1    -23.4750147 -0.234750E+02  0.104E-01    2.48       0.0  T
   2    -23.4750237 -0.900478E-05  0.598E-02    2.48       1.0  T
   3    -23.4750238 -0.802103E-07  0.213E-02    2.48       1.2  T
   4    -23.4750247 -0.915983E-06  0.402E-03    2.48       6.2  T
   5    -23.4750248 -0.109769E-06  0.259E-03    2.48       9.7  T
   6    -23.4750249 -0.557784E-07  0.980E-04    2.48      25.5  T
   7    -23.4750249 -0.492032E-08  0.333E-04    2.48      75.1  T
     SCC iter.                  ...        0 min,  0.003 sec
     gradient                   ...        0 min,  0.001 sec
 * total energy  :   -23.2420179 Eh     change       -0.5722222E-03 Eh
   gradient norm :     0.0228704 Eh/α   predicted    -0.4650281E-03 ( -18.73%)
   displ. norm   :     0.2339047 α      lambda       -0.3779707E-03
   maximum displ.:     0.1526939 α      in ANC's #1, #2, #35, ...

........................................................................
.............................. CYCLE   34 ..............................
........................................................................

 iter      E             dE          RMSdq      gap      omega  full diag
   1    -23.4750738 -0.234751E+02  0.973E-02    2.44       0.0  T
   2    -23.4750754 -0.154787E-05  0.586E-02    2.43       1.0  T
   3    -23.4750497  0.256921E-04  0.455E-02    2.44       1.0  T
   4    -23.4750819 -0.322308E-04  0.588E-03    2.43       4.3  T
   5    -23.4750824 -0.543412E-06  0.128E-03    2.44      19.5  T
   6    -23.4750824 -0.229100E-08  0.535E-04    2.44      46.7  T
   7    -23.4750824 -0.684530E-09  0.189E-04    2.44     132.2  T
     SCC iter.                  ...        0 min,  0.003 sec
     gradient                   ...        0 min,  0.001 sec
 * total energy  :   -23.2422900 Eh     change       -0.2721761E-03 Eh
   gradient norm :     0.0181763 Eh/α   predicted    -0.1993215E-03 ( -26.77%)
   displ. norm   :     0.1686764 α      lambda       -0.3743118E-03
   maximum displ.:     0.0975756 α      in ANC's #1, #6, #35, ...

........................................................................
.............................. CYCLE   35 ..............................
........................................................................

 iter      E             dE          RMSdq      gap      omega  full diag
   1    -23.4777672 -0.234778E+02  0.807E-02    2.45       0.0  T
   2    -23.4777639  0.330820E-05  0.594E-02    2.43       1.0  T
   3    -23.4777916 -0.276624E-04  0.361E-02    2.44       1.0  T
   4    -23.4778011 -0.958047E-05  0.569E-03    2.44       4.4  T
   5    -23.4778013 -0.164074E-06  0.168E-03    2.44      14.9  T
   6    -23.4778013 -0.362687E-08  0.623E-04    2.44      40.1  T
   7    -23.4778013 -0.851969E-09  0.232E-04    2.44     107.9  T
     SCC iter.                  ...        0 min,  0.003 sec
     gradient                   ...        0 min,  0.001 sec
 * total energy  :   -23.2422050 Eh     change        0.8499988E-04 Eh
   gradient norm :     0.0516204 Eh/α   predicted    -0.1924793E-03 (-326.45%)
   displ. norm   :     0.3245059 α      lambda       -0.7164853E-03
   maximum displ.:     0.2238885 α      in ANC's #1, #2, #35, ...

........................................................................
.............................. CYCLE   36 ..............................
........................................................................

 iter      E             dE          RMSdq      gap      omega  full diag
   1    -23.4743362 -0.234743E+02  0.130E-01    2.32       0.0  T
   2    -23.4743372 -0.101583E-05  0.850E-02    2.32       1.0  T
   3    -23.4742670  0.701694E-04  0.612E-02    2.31       1.0  T
   4    -23.4743472 -0.802252E-04  0.559E-03    2.32       4.5  T
   5    -23.4743476 -0.367636E-06  0.189E-03    2.32      13.2  T
   6    -23.4743476 -0.505484E-08  0.486E-04    2.32      51.4  T
   7    -23.4743476 -0.882959E-09  0.227E-04    2.32     110.3  T
     SCC iter.                  ...        0 min,  0.003 sec
     gradient                   ...        0 min,  0.001 sec
 * total energy  :   -23.2423768 Eh     change       -0.1717158E-03 Eh
   gradient norm :     0.0247291 Eh/α   predicted    -0.3959664E-03 ( 130.59%)
   displ. norm   :     0.2428829 α      lambda       -0.4294152E-03
   maximum displ.:     0.1593630 α      in ANC's #1, #2, #35, ...

........................................................................
.............................. CYCLE   37 ..............................
........................................................................

 iter      E             dE          RMSdq      gap      omega  full diag
   1    -23.4765279 -0.234765E+02  0.102E-01    2.39       0.0  T
   2    -23.4765297 -0.179617E-05  0.612E-02    2.39       1.0  T
   3    -23.4765265  0.324148E-05  0.152E-02    2.39       1.6  T
   4    -23.4765294 -0.297408E-05  0.651E-03    2.39       3.8  T
   5    -23.4765303 -0.833917E-06  0.142E-03    2.39      17.6  T
   6    -23.4765303 -0.127596E-08  0.368E-04    2.39      67.9  T
   7    -23.4765303 -0.284707E-09  0.139E-04    2.39     179.8  T
     SCC iter.                  ...        0 min,  0.003 sec
     gradient                   ...        0 min,  0.001 sec
 * total energy  :   -23.2424657 Eh     change       -0.8891898E-04 Eh
   gradient norm :     0.0044810 Eh/α   predicted    -0.2273749E-03 ( 155.71%)
   displ. norm   :     0.0753819 α      lambda       -0.4833575E-04
   maximum displ.:     0.0437861 α      in ANC's #1, #2, #6, ...

........................................................................
.............................. CYCLE   38 ..............................
........................................................................

 iter      E             dE          RMSdq      gap      omega  full diag
   1    -23.4760176 -0.234760E+02  0.324E-02    2.38       0.0  T
   2    -23.4760174  0.159028E-06  0.197E-02    2.38       1.3  T
   3    -23.4760143  0.310357E-05  0.174E-02    2.38       1.4  T
   4    -23.4760189 -0.455491E-05  0.115E-03    2.38      21.8  T
   5    -23.4760189 -0.952975E-08  0.483E-04    2.38      51.7  T
   6    -23.4760189 -0.543377E-09  0.180E-04    2.38     138.6  T
     SCC iter.                  ...        0 min,  0.003 sec
     gradient                   ...        0 min,  0.001 sec
 * total energy  :   -23.2424972 Eh     change       -0.3156240E-04 Eh
   gradient norm :     0.0053642 Eh/α   predicted    -0.2430494E-04 ( -22.99%)
   displ. norm   :     0.0986713 α      lambda       -0.2664829E-04
   maximum displ.:     0.0633814 α      in ANC's #1, #2, #6, ...

........................................................................
.............................. CYCLE   39 ..............................
........................................................................

 iter      E             dE          RMSdq      gap      omega  full diag
   1    -23.4756734 -0.234757E+02  0.372E-02    2.35       0.0  T
   2    -23.4756737 -0.350705E-06  0.225E-02    2.35       1.1  T
   3    -23.4756737  0.409589E-07  0.382E-03    2.35       6.5  T
   4    -23.4756737 -0.729200E-07  0.106E-03    2.35      23.7  T
   5    -23.4756738 -0.157523E-07  0.456E-04    2.35      54.8  T
   6    -23.4756738 -0.109174E-08  0.164E-04    2.35     152.7  T
     SCC iter.                  ...        0 min,  0.003 sec
     gradient                   ...        0 min,  0.001 sec
 * total energy  :   -23.2425063 Eh     change       -0.9059771E-05 Eh
   gradient norm :     0.0045134 Eh/α   predicted    -0.1345356E-04 (  48.50%)
   displ. norm   :     0.0171350 α      lambda       -0.7474611E-05
   maximum displ.:     0.0126395 α      in ANC's #1, #2, #35, ...

........................................................................
.............................. CYCLE   40 ..............................
........................................................................

 iter      E             dE          RMSdq      gap      omega  full diag
   1    -23.4759318 -0.234759E+02  0.752E-03    2.36       0.0  T
   2    -23.4759318 -0.887410E-08  0.478E-03    2.36       5.2  T
   3    -23.4759316  0.163188E-06  0.282E-03    2.36       8.9  T
   4    -23.4759318 -0.178148E-06  0.373E-04    2.36      67.0  T
   5    -23.4759318 -0.195621E-08  0.113E-04    2.36     220.6  T
     SCC iter.                  ...        0 min,  0.003 sec
     gradient                   ...        0 min,  0.001 sec
 * total energy  :   -23.2425110 Eh     change       -0.4649706E-05 Eh
   gradient norm :     0.0019594 Eh/α   predicted    -0.3737295E-05 ( -19.62%)
   displ. norm   :     0.0231880 α      lambda       -0.3565131E-05
   maximum displ.:     0.0133342 α      in ANC's #2, #6, #1, ...

........................................................................
.............................. CYCLE   41 ..............................
........................................................................

 iter      E             dE          RMSdq      gap      omega  full diag
   1    -23.4761043 -0.234761E+02  0.892E-03    2.35       0.0  T
   2    -23.4761043  0.715942E-08  0.581E-03    2.35       4.3  T
   3    -23.4761040  0.292053E-06  0.450E-03    2.35       5.6  T
   4    -23.4761044 -0.374458E-06  0.321E-04    2.35      77.8  T
   5    -23.4761044 -0.887546E-09  0.142E-04    2.35     175.7  T
     SCC iter.                  ...        0 min,  0.003 sec
     gradient                   ...        0 min,  0.001 sec
 * total energy  :   -23.2425145 Eh     change       -0.3535569E-05 Eh
   gradient norm :     0.0031040 Eh/α   predicted    -0.1784864E-05 ( -49.52%)
   displ. norm   :     0.0198965 α      lambda       -0.2982354E-05
   maximum displ.:     0.0127372 α      in ANC's #2, #6, #1, ...

........................................................................
.............................. CYCLE   42 ..............................
........................................................................

 iter      E             dE          RMSdq      gap      omega  full diag
   1    -23.4761344 -0.234761E+02  0.772E-03    2.35       0.0  T
   2    -23.4761344 -0.255635E-08  0.477E-03    2.35       5.2  T
   3    -23.4761342  0.170018E-06  0.300E-03    2.35       8.3  T
   4    -23.4761344 -0.187040E-06  0.269E-04    2.35      93.1  T
   5    -23.4761344 -0.904603E-09  0.105E-04    2.35     238.4  T
     SCC iter.                  ...        0 min,  0.003 sec
     gradient                   ...        0 min,  0.001 sec
 * total energy  :   -23.2425170 Eh     change       -0.2529754E-05 Eh
   gradient norm :     0.0030911 Eh/α   predicted    -0.1493125E-05 ( -40.98%)
   displ. norm   :     0.0479070 α      lambda       -0.7881716E-05
   maximum displ.:     0.0337113 α      in ANC's #2, #6, #35, ...
 * RMSD in coord.:     0.7770429 α      energy gain  -0.9492873E-02 Eh

generating ANC from model Hessian ...
Using Lindh-Hessian (1995)
 Shifting diagonal of input Hessian by    1.3548553506429728E-002
 Lowest  eigenvalues of input Hessian
    0.010000    0.000000    0.000000    0.000000    0.000000    0.000000
    0.000000    0.017949    0.018935    0.026342    0.031137    0.051343
    0.056184    0.059261    0.061442    0.062968    0.063400    0.066662
 Highest eigenvalues
    1.284733    1.366130    1.388581    1.421402    4.584980   12.356135


........................................................................
.............................. CYCLE   43 ..............................
........................................................................

 iter      E             dE          RMSdq      gap      omega  full diag
   1    -23.4761287 -0.234761E+02  0.189E-02    2.34       0.0  T
   2    -23.4761287 -0.129691E-07  0.117E-02    2.34       2.1  T
   3    -23.4761279  0.851212E-06  0.652E-03    2.34       3.8  T
   4    -23.4761288 -0.925313E-06  0.559E-04    2.34      44.7  T
   5    -23.4761288 -0.264614E-08  0.272E-04    2.34      91.8  T
     SCC iter.                  ...        0 min,  0.003 sec
     gradient                   ...        0 min,  0.001 sec
 * total energy  :   -23.2425223 Eh     change       -0.5314697E-05 Eh
   gradient norm :     0.0029739 Eh/α   predicted     0.0000000E+00 (-100.00%)
   displ. norm   :     0.0952703 α      lambda       -0.1084181E-03
   maximum displ.:     0.0880702 α      in ANC's #1, #3, #2, ...

........................................................................
.............................. CYCLE   44 ..............................
........................................................................

 iter      E             dE          RMSdq      gap      omega  full diag
   1    -23.4759277 -0.234759E+02  0.803E-02    2.39       0.0  T
   2    -23.4759288 -0.110007E-05  0.527E-02    2.41       1.0  T
   3    -23.4759201  0.865974E-05  0.408E-02    2.40       1.0  T
   4    -23.4759404 -0.202360E-04  0.671E-03    2.40       3.7  T
   5    -23.4759409 -0.548887E-06  0.118E-03    2.40      21.2  T
   6    -23.4759409 -0.251508E-08  0.520E-04    2.40      48.1  T
   7    -23.4759409 -0.336783E-09  0.200E-04    2.40     125.3  T
     SCC iter.                  ...        0 min,  0.003 sec
     gradient                   ...        0 min,  0.001 sec
 * total energy  :   -23.2425641 Eh     change       -0.4172663E-04 Eh
   gradient norm :     0.0144753 Eh/α   predicted    -0.5470327E-04 (  31.10%)
   displ. norm   :     0.0229586 α      lambda       -0.5280685E-04
   maximum displ.:     0.0105748 α      in ANC's #2, #3, #4, ...

........................................................................
.............................. CYCLE   45 ..............................
........................................................................

 iter      E             dE          RMSdq      gap      omega  full diag
   1    -23.4760368 -0.234760E+02  0.195E-02    2.40       0.0  T
   2    -23.4760363  0.574469E-06  0.159E-02    2.40       1.6  T
   3    -23.4760397 -0.342600E-05  0.784E-03    2.40       3.2  T
   4    -23.4760400 -0.283157E-06  0.138E-03    2.40      18.2  T
   5    -23.4760400 -0.912826E-08  0.365E-04    2.40      68.5  T
   6    -23.4760400 -0.268155E-09  0.136E-04    2.40     183.3  T
     SCC iter.                  ...        0 min,  0.003 sec
     gradient                   ...        0 min,  0.001 sec
 * total energy  :   -23.2425924 Eh     change       -0.2832309E-04 Eh
   gradient norm :     0.0068619 Eh/α   predicted    -0.2641864E-04 (  -6.72%)
   displ. norm   :     0.0345521 α      lambda       -0.2280530E-04
   maximum displ.:     0.0176578 α      in ANC's #1, #3, #2, ...

........................................................................
.............................. CYCLE   46 ..............................
........................................................................

 iter      E             dE          RMSdq      gap      omega  full diag
   1    -23.4760498 -0.234760E+02  0.230E-02    2.40       0.0  T
   2    -23.4760500 -0.144823E-06  0.143E-02    2.40       1.7  T
   3    -23.4760490  0.948763E-06  0.734E-03    2.40       3.4  T
   4    -23.4760501 -0.103186E-05  0.160E-03    2.40      15.6  T
   5    -23.4760501 -0.430899E-07  0.428E-04    2.40      58.5  T
   6    -23.4760501 -0.149448E-09  0.106E-04    2.40     236.9  T
     SCC iter.                  ...        0 min,  0.003 sec
     gradient                   ...        0 min,  0.001 sec
 * total energy  :   -23.2426058 Eh     change       -0.1338447E-04 Eh
   gradient norm :     0.0020536 Eh/α   predicted    -0.1141490E-04 ( -14.72%)
   displ. norm   :     0.0315028 α      lambda       -0.1066316E-04
   maximum displ.:     0.0186860 α      in ANC's #3, #1, #2, ...

........................................................................
.............................. CYCLE   47 ..............................
........................................................................

 iter      E             dE          RMSdq      gap      omega  full diag
   1    -23.4760389 -0.234760E+02  0.236E-02    2.41       0.0  T
   2    -23.4760390 -0.120005E-06  0.147E-02    2.41       1.7  T
   3    -23.4760383  0.651597E-06  0.610E-03    2.41       4.1  T
   4    -23.4760390 -0.704284E-06  0.141E-03    2.41      17.7  T
   5    -23.4760391 -0.360629E-07  0.395E-04    2.41      63.3  T
   6    -23.4760391 -0.808527E-10  0.885E-05    2.41     282.6  T
     SCC iter.                  ...        0 min,  0.003 sec
     gradient                   ...        0 min,  0.001 sec
 * total energy  :   -23.2426132 Eh     change       -0.7410163E-05 Eh
   gradient norm :     0.0019069 Eh/α   predicted    -0.5337778E-05 ( -27.97%)
   displ. norm   :     0.0407343 α      lambda       -0.9502317E-05
   maximum displ.:     0.0300828 α      in ANC's #3, #2, #4, ...

........................................................................
.............................. CYCLE   48 ..............................
........................................................................

 iter      E             dE          RMSdq      gap      omega  full diag
   1    -23.4763194 -0.234763E+02  0.267E-02    2.42       0.0  T
   2    -23.4763195 -0.773138E-07  0.164E-02    2.42       1.5  T
   3    -23.4763195 -0.234597E-07  0.129E-03    2.42      19.4  T
   4    -23.4763196 -0.934887E-08  0.846E-04    2.42      29.6  T
   5    -23.4763196 -0.628360E-08  0.469E-04    2.42      53.3  T
     SCC iter.                  ...        0 min,  0.003 sec
     gradient                   ...        0 min,  0.001 sec
 * total energy  :   -23.2426193 Eh     change       -0.6078983E-05 Eh
   gradient norm :     0.0020122 Eh/α   predicted    -0.4753652E-05 ( -21.80%)
   displ. norm   :     0.0275444 α      lambda       -0.5608843E-05
   maximum displ.:     0.0249300 α      in ANC's #3, #2, #1, ...

........................................................................
.............................. CYCLE   49 ..............................
........................................................................

 iter      E             dE          RMSdq      gap      omega  full diag
   1    -23.4761218 -0.234761E+02  0.195E-02    2.42       0.0  T
   2    -23.4761219 -0.118695E-06  0.120E-02    2.42       2.1  T
   3    -23.4761218  0.659183E-07  0.301E-03    2.42       8.3  T
   4    -23.4761219 -0.644270E-07  0.140E-03    2.42      17.9  T
   5    -23.4761219 -0.390727E-07  0.383E-04    2.42      65.2  T
   6    -23.4761219 -0.256392E-09  0.112E-04    2.42     224.1  T
     SCC iter.                  ...        0 min,  0.003 sec
     gradient                   ...        0 min,  0.001 sec
 * total energy  :   -23.2426220 Eh     change       -0.2770637E-05 Eh
   gradient norm :     0.0010222 Eh/α   predicted    -0.2808299E-05 (   1.36%)
   displ. norm   :     0.0245027 α      lambda       -0.3909879E-05
   maximum displ.:     0.0187879 α      in ANC's #1, #3, #10, ...

........................................................................
.............................. CYCLE   50 ..............................
........................................................................

 iter      E             dE          RMSdq      gap      omega  full diag
   1    -23.4762497 -0.234762E+02  0.103E-02    2.42       0.0  T
   2    -23.4762497 -0.419691E-07  0.618E-03    2.41       4.0  T
   3    -23.4762496  0.147399E-06  0.311E-03    2.42       8.0  T
   4    -23.4762497 -0.153225E-06  0.968E-04    2.41      25.8  T
   5    -23.4762498 -0.179999E-07  0.185E-04    2.41     134.8  T
     SCC iter.                  ...        0 min,  0.003 sec
     gradient                   ...        0 min,  0.001 sec
 * total energy  :   -23.2426259 Eh     change       -0.3870653E-05 Eh
   gradient norm :     0.0013625 Eh/α   predicted    -0.1955024E-05 ( -49.49%)
   displ. norm   :     0.0446303 α      lambda       -0.2943939E-05
   maximum displ.:     0.0354584 α      in ANC's #3, #1, #2, ...

........................................................................
.............................. CYCLE   51 ..............................
........................................................................

 iter      E             dE          RMSdq      gap      omega  full diag
   1    -23.4761921 -0.234762E+02  0.171E-02    2.41       0.0  T
   2    -23.4761922 -0.481132E-07  0.104E-02    2.41       2.4  T
   3    -23.4761918  0.316547E-06  0.421E-03    2.41       5.9  T
   4    -23.4761922 -0.335438E-06  0.100E-03    2.41      25.0  T
   5    -23.4761922 -0.182281E-07  0.261E-04    2.41      95.8  T
   6    -23.4761922 -0.259526E-10  0.703E-05    2.41     355.6  T
     SCC iter.                  ...        0 min,  0.003 sec
     gradient                   ...        0 min,  0.001 sec
 * total energy  :   -23.2426281 Eh     change       -0.2228761E-05 Eh
   gradient norm :     0.0007970 Eh/α   predicted    -0.1475027E-05 ( -33.82%)
   displ. norm   :     0.0079847 α      lambda       -0.6891671E-06
   maximum displ.:     0.0069450 α      in ANC's #1, #3, #4, ...

   *** GEOMETRY OPTIMIZATION CONVERGED AFTER 51 ITERATIONS ***

------------------------------------------------------------------------
 total energy gain   :        -0.0592978 Eh      -37.2099 kcal/mol
 total RMSD          :         1.1207212 a0        0.5931 Å
 total power (kW/mol):        -3.0526717 (step) -515.6092 (real)
------------------------------------------------------------------------

 ANCopt (total)                0 d,  0 h,  0 min,  0.302 sec
 optimizer setup                ...        0 min,  0.000 sec (  0.035%)
 model hessian                  ...        0 min,  0.017 sec (  5.658%)
 ANC generation                 ...        0 min,  0.001 sec (  0.327%)
 coordinate transformation      ...        0 min,  0.000 sec (  0.070%)
 single point calculation       ...        0 min,  0.270 sec ( 89.516%)
 optimization log               ...        0 min,  0.004 sec (  1.399%)
 hessian update                 ...        0 min,  0.000 sec (  0.155%)
 rational function              ...        0 min,  0.006 sec (  1.945%)

================
 final structure:
================
16
 xtb: 6.6.1 (8d0f1dd)
O            2.32523019089883       -1.25201810324726        0.92350365635709
O            0.62953325791056       -1.14529271970077        0.72199970271382
C            0.40671396617886       -0.79638015151136       -0.62488672316489
C           -1.06087634128891       -1.23462084801126       -0.60642502764816
C           -1.24519710576594       -0.44534655400582        0.65378162387388
C           -0.78889363587056        0.95198824704786        0.39998444758669
C            0.30531956924319        0.73407299133302       -0.66974205682799
H            2.32258044349628       -1.64135727889629        1.79996636007641
H            1.12106563350370       -1.26148473570980       -1.30245979231484
H           -1.17881699007814       -2.30620257878838       -0.47338929347216
H           -1.65571960060783       -0.88278449529565       -1.45369271689161
H           -1.82287797808436       -0.75145849646938        1.50617516838584
H           -0.40026755062172        1.41897577351698        1.30422463883179
H           -1.60806437300467        1.57492028493626        0.02610330567342
H            1.25196638063402        1.18953073042298       -0.39021860152986
H            0.01064413346598        1.08450793438394       -1.65738469165390

 Bond Distances (Angstroems)
 ---------------------------
O1-H8=0.9591         O2-C3=1.4091         C3-O2=1.4091         C3-C4=1.5317         C3-C7=1.5345         C3-H9=1.0889         
C4-C3=1.5317         C4-C5=1.4983         C4-H10=1.0862        C4-H11=1.0934        C5-C4=1.4983         C5-C6=1.4917         
C5-H12=1.0742        C6-C5=1.4917         C6-C7=1.5457         C6-H13=1.0894        C6-H14=1.0949        C7-C3=1.5345         
C7-C6=1.5457         C7-H15=1.0871        C7-H16=1.0886        H8-O1=0.9591         H9-C3=1.0889         H10-C4=1.0862        
H11-C4=1.0934        H12-C5=1.0742        H13-C6=1.0894        H14-C6=1.0949        H15-C7=1.0871        H16-C7=1.0886        
 C  H  Rav=1.0878 sigma=0.0058  Rmin=1.0742  Rmax=1.0949     8
 C  C  Rav=1.5204 sigma=0.0213  Rmin=1.4917  Rmax=1.5457     5
 O  H  Rav=0.9591 sigma=0.0000  Rmin=0.9591  Rmax=0.9591     1
 O  C  Rav=1.4091 sigma=0.0000  Rmin=1.4091  Rmax=1.4091     1

 selected bond angles (degree)
 --------------------
C4-C3-O2= 93.96                C7-C3-O2=106.58                C7-C3-C4=102.85                H9-C3-O2=112.66                
H9-C3-C4=120.92                H9-C3-C7=116.82                C5-C4-C3= 88.70                H10-C4-C3=112.81               
H10-C4-C5=113.78               H11-C4-C3=114.83               H11-C4-C5=114.54               H11-C4-H10=110.69              
C6-C5-C4=108.22                H12-C5-C4=125.69               H12-C5-C6=124.50               C7-C6-C5=101.67                
H13-C6-C5=111.68               H13-C6-C7=112.48               H14-C6-C5=111.23               H14-C6-C7=111.93               
H14-C6-H13=107.85              C6-C7-C3= 99.62                H15-C7-C3=110.66               H15-C7-C6=112.30               
H16-C7-C3=111.44               H16-C7-C6=113.01               H16-C7-H15=109.52              

 selected dihedral angles (degree)
 ---------------------------------
C5-C4-C3-O2= 49.14            C5-C4-C3-C7=301.13            C5-C4-C3-H9=168.59            H10-C4-C3-O2=293.79           
H10-C4-C3-C7=185.78           H10-C4-C3-H9= 53.25           H11-C4-C3-O2=165.70           H11-C4-C3-C7= 57.69           
H11-C4-C3-H9=285.16           C6-C5-C4-C3= 54.16            C6-C5-C4-H10=168.60           C6-C5-C4-H11=297.33           
H12-C5-C4-C3=220.27           H12-C5-C4-H10=334.71          H12-C5-C4-H11=103.44          C7-C6-C5-C4=330.13            
C7-C6-C5-H12=163.82           H13-C6-C5-C4=209.98           H13-C6-C5-H12= 43.67          H14-C6-C5-C4= 89.44           
H14-C6-C5-H12=283.12          C6-C7-C3-O2=306.52            C6-C7-C3-C4= 44.68            C6-C7-C3-H9=179.58            
H15-C7-C3-O2= 64.90           H15-C7-C3-C4=163.06           H15-C7-C3-H9=297.96           H16-C7-C3-O2=187.02           
H16-C7-C3-C4=285.18           H16-C7-C3-H9= 60.08           C3-C7-C6-C5=350.70            C3-C7-C6-H13=110.28           
C3-C7-C6-H14=231.89           H15-C7-C6-C5=233.55           H15-C7-C6-H13=353.13          H15-C7-C6-H14=114.74          
H16-C7-C6-C5=109.04           H16-C7-C6-H13=228.62          H16-C7-C6-H14=350.23          

 CMA Distance (Angstroems)
 ---------------------------
R(CMA):  2.9350
           -------------------------------------------------
          |                Final Singlepoint                |
           -------------------------------------------------

          ...................................................
          :                      SETUP                      :
          :.................................................:
          :  # basis functions                  37          :
          :  # atomic orbitals                  37          :
          :  # shells                           23          :
          :  # electrons                        41          :
          :  max. iterations                   250          :
          :  Hamiltonian                  GFN2-xTB          :
          :  restarted?                      false          :
          :  GBSA solvation                  false          :
          :  PC potential                    false          :
          :  electronic temp.          300.0000000     K    :
          :  accuracy                    1.0000000          :
          :  -> integral cutoff          0.2500000E+02      :
          :  -> integral neglect         0.1000000E-07      :
          :  -> SCF convergence          0.1000000E-05 Eh   :
          :  -> wf. convergence          0.1000000E-03 e    :
          :  Broyden damping             0.4000000          :
          ...................................................

 iter      E             dE          RMSdq      gap      omega  full diag
   1    -23.4761922 -0.234762E+02  0.204E-05    2.41       0.0  T
   2    -23.4761922 -0.710543E-12  0.116E-05    2.41    2151.9  T
   3    -23.4761922  0.451195E-12  0.880E-06    2.41    2840.3  T

   *** convergence criteria satisfied after 3 iterations ***

         #    Occupation            Energy/Eh            Energy/eV
      -------------------------------------------------------------
         1        2.0000           -0.6930018             -18.8575
       ...           ...                  ...                  ...
        15        2.0000           -0.4699913             -12.7891
        16        2.0000           -0.4646371             -12.6434
        17        2.0000           -0.4562204             -12.4144
        18        2.0000           -0.4421367             -12.0312
        19        2.0000           -0.4360638             -11.8659
        20        2.0000           -0.4015457             -10.9266
        21        1.0000           -0.3298629              -8.9760 (HOMO)
        22                         -0.2413093              -6.5664 (LUMO)
        23                          0.0315623               0.8589
        24                          0.0512023               1.3933
        25                          0.0638217               1.7367
        26                          0.0883310               2.4036
       ...                                ...                  ...
        37                          0.3658335               9.9548
      -------------------------------------------------------------
                  HL-Gap            0.0885536 Eh            2.4097 eV
             Fermi-level           -0.3256452 Eh           -8.8613 eV

 SCC (total)                   0 d,  0 h,  0 min,  0.004 sec
 SCC setup                      ...        0 min,  0.000 sec (  1.954%)
 Dispersion                     ...        0 min,  0.000 sec (  1.343%)
 classical contributions        ...        0 min,  0.000 sec (  0.292%)
 integral evaluation            ...        0 min,  0.000 sec ( 10.467%)
 iterations                     ...        0 min,  0.002 sec ( 49.592%)
 molecular gradient             ...        0 min,  0.001 sec ( 32.956%)
 printout                       ...        0 min,  0.000 sec (  2.849%)

         :::::::::::::::::::::::::::::::::::::::::::::::::::::
         ::                     SUMMARY                     ::
         :::::::::::::::::::::::::::::::::::::::::::::::::::::
         :: total energy             -23.242628126832 Eh    ::
         :: gradient norm              0.000796943798 Eh/a0 ::
         :: HOMO-LUMO gap              2.409665353345 eV    ::
         ::.................................................::
         :: SCC energy               -23.476192196972 Eh    ::
         :: -> isotropic ES            0.045085679399 Eh    ::
         :: -> anisotropic ES         -0.005345847754 Eh    ::
         :: -> anisotropic XC          0.005217621303 Eh    ::
         :: -> dispersion             -0.009864721570 Eh    ::
         :: repulsion energy           0.233414364769 Eh    ::
         :: add. restraining           0.000122418121 Eh    ::
         :: total charge               0.000000000000 e     ::
         :::::::::::::::::::::::::::::::::::::::::::::::::::::

           -------------------------------------------------
          |                Property Printout                |
           -------------------------------------------------

    * Orbital Energies and Occupations

         #    Occupation            Energy/Eh            Energy/eV
      -------------------------------------------------------------
         1        2.0000           -0.6930018             -18.8575
       ...           ...                  ...                  ...
         9        2.0000           -0.5420802             -14.7508
        10        2.0000           -0.5363039             -14.5936
        11        2.0000           -0.5226315             -14.2215
        12        2.0000           -0.4985906             -13.5673
        13        2.0000           -0.4860108             -13.2250
        14        2.0000           -0.4763138             -12.9612
        15        2.0000           -0.4699913             -12.7891
        16        2.0000           -0.4646371             -12.6434
        17        2.0000           -0.4562204             -12.4144
        18        2.0000           -0.4421367             -12.0312
        19        2.0000           -0.4360638             -11.8659
        20        2.0000           -0.4015457             -10.9266
        21        1.0000           -0.3298629              -8.9760 (HOMO)
        22                         -0.2413093              -6.5664 (LUMO)
        23                          0.0315623               0.8589
        24                          0.0512023               1.3933
        25                          0.0638217               1.7367
        26                          0.0883310               2.4036
        27                          0.1088674               2.9624
        28                          0.1295578               3.5254
        29                          0.1443608               3.9283
        30                          0.1613539               4.3907
        31                          0.1833617               4.9895
        32                          0.1912416               5.2039
       ...                                ...                  ...
        37                          0.3658335               9.9548
      -------------------------------------------------------------
                  HL-Gap            0.0885536 Eh            2.4097 eV
             Fermi-level           -0.3256452 Eh           -8.8613 eV

     #   Z          covCN         q      C6AA      α(0)
     1   8 O        1.220    -0.443    22.306     6.344
     2   8 O        1.446    -0.255    18.432     5.785
     3   6 C        4.014     0.133    18.360     6.087
     4   6 C        3.861    -0.059    21.595     6.609
     5   6 C        3.320     0.016    25.530     8.045
     6   6 C        3.841    -0.055    21.539     6.602
     7   6 C        3.844    -0.070    21.798     6.641
     8   1 H        0.805     0.288     0.760     1.369
     9   1 H        0.925     0.047     2.355     2.400
    10   1 H        0.925     0.061     2.185     2.312
    11   1 H        0.924     0.055     2.256     2.349
    12   1 H        0.926     0.060     2.197     2.318
    13   1 H        0.925     0.065     2.145     2.290
    14   1 H        0.924     0.057     2.235     2.338
    15   1 H        0.925     0.063     2.165     2.301
    16   1 H        0.925     0.037     2.491     2.468

 Mol. C6AA /au·bohr⁶  :       2031.661023
 Mol. C8AA /au·bohr⁸  :      44134.316807
 Mol. α(0) /au        :         66.258201


Wiberg/Mayer (AO) data.
largest (>0.10) Wiberg bond orders for each atom

 ---------------------------------------------------------------------------
     #   Z sym  total        # sym  WBO       # sym  WBO       # sym  WBO
 ---------------------------------------------------------------------------
     1   8 O    1.847 --     8 H    0.915     2 O    0.670     5 C    0.184
     2   8 O    2.121 --     3 C    0.993     1 O    0.670     5 C    0.369
     3   6 C    3.946 --     2 O    0.993     7 C    0.985     9 H    0.961
                             4 C    0.952
     4   6 C    3.988 --     5 C    1.035    10 H    0.973     3 C    0.952
                            11 H    0.945
     5   6 C    3.725 --     6 C    1.059     4 C    1.035    12 H    0.972
                             2 O    0.369     1 O    0.184
     6   6 C    3.996 --     5 C    1.059     7 C    0.995    13 H    0.965
                            14 H    0.943
     7   6 C    3.995 --     6 C    0.995     3 C    0.985    16 H    0.980
                            15 H    0.978
     8   1 H    0.917 --     1 O    0.915
     9   1 H    0.998 --     3 C    0.961
    10   1 H    0.996 --     4 C    0.973
    11   1 H    0.996 --     4 C    0.945
    12   1 H    0.996 --     5 C    0.972
    13   1 H    0.996 --     6 C    0.965
    14   1 H    0.996 --     6 C    0.943
    15   1 H    0.996 --     7 C    0.978
    16   1 H    0.999 --     7 C    0.980
 ---------------------------------------------------------------------------

Topologies differ in total number of bonds
Writing topology from bond orders to xtbtopo.mol

molecular dipole:
                 x           y           z       tot (Debye)
 q only:       -1.250       0.439      -0.317
   full:       -1.261       0.340      -0.191       3.355
molecular quadrupole (traceless):
                xx          xy          yy          xz          yz          zz
 q only:       -3.619       2.501       0.607      -0.280       0.414       3.011
  q+dip:       -5.002       2.091       1.006       0.644      -0.390       3.996
   full:       -4.273       1.906       0.442       0.756      -0.560       3.831

           -------------------------------------------------
          |                Geometry Summary                 |
           -------------------------------------------------

      molecular mass/u    :      101.1239561
   center of mass at/Å    :        0.1649325      -0.4888588       0.1533243
  moments of inertia/u·Å² :        0.1141241E+03   0.2249863E+03   0.2459577E+03
rotational constants/cm⁻¹ :        0.1477132E+00   0.7492737E-01   0.6853875E-01

 * 12 selected distances

     #   Z          #   Z                                           value/Å
     3   6 C        4   6 C                                       1.5317368
     4   6 C        5   6 C                                       1.4983489
     5   6 C        6   6 C                                       1.4917006
     3   6 C        7   6 C                                       1.5344641 (max)
     3   6 C        9   1 H                                       1.0889105
     4   6 C       10   1 H                                       1.0862302
     4   6 C       11   1 H                                       1.0933847
     5   6 C       12   1 H                                       1.0742414 (min)
     6   6 C       13   1 H                                       1.0893843
     6   6 C       14   1 H                                       1.0949303
     7   6 C       15   1 H                                       1.0870674
     7   6 C       16   1 H                                       1.0886122

 * 2 distinct bonds (by element types)

   Z      Z             #   av. dist./Å        max./Å        min./Å
   1 H    6 C           8     1.0878451     1.0949303     1.0742414
   6 C    6 C           4     1.5140626     1.5344641     1.4917006


optimized geometry written to: xtbopt.xyz


           -------------------------------------------------
          | TOTAL ENERGY              -23.242628126832 Eh   |
          | GRADIENT NORM               0.000796943798 Eh/α |
          | HOMO-LUMO GAP               2.409665353345 eV   |
           -------------------------------------------------

------------------------------------------------------------------------
 * finished run on 2025/05/23 at 13:15:48.953     
------------------------------------------------------------------------
 total:
 * wall-time:     0 d,  0 h,  0 min,  0.324 sec
 *  cpu-time:     0 d,  0 h,  0 min,  2.259 sec
 * ratio c/w:     6.965 speedup
 SCF:
 * wall-time:     0 d,  0 h,  0 min,  0.010 sec
 *  cpu-time:     0 d,  0 h,  0 min,  0.070 sec
 * ratio c/w:     6.778 speedup
 ANC optimizer:
 * wall-time:     0 d,  0 h,  0 min,  0.307 sec
 *  cpu-time:     0 d,  0 h,  0 min,  2.143 sec
 * ratio c/w:     6.983 speedup

