      -----------------------------------------------------------      
     |                   =====================                   |     
     |                           x T B                           |     
     |                   =====================                   |     
     |                         S. Grimme                         |     
     |          Mulliken Center for Theoretical Chemistry        |     
     |                    University of Bonn                     |     
      -----------------------------------------------------------      

   * xtb version 6.6.1 (8d0f1dd) compiled by 'conda@1efc2f54142f' on 2023-08-01

   xtb is free software: you can redistribute it and/or modify it under
   the terms of the GNU Lesser General Public License as published by
   the Free Software Foundation, either version 3 of the License, or
   (at your option) any later version.
   
   xtb is distributed in the hope that it will be useful,
   but WITHOUT ANY WARRANTY; without even the implied warranty of
   MERCHANTABILITY or FITNESS FOR A PARTICULAR PURPOSE.  See the
   GNU Lesser General Public License for more details.
   
   Cite this work as:
   * C. Bannwarth, E. Caldeweyher, S. Ehlert, A. Hansen, P. Pracht,
     J. Seibert, S. Spicher, S. Grimme, WIREs Comput. Mol. Sci., 2020, 11,
     e01493. DOI: 10.1002/wcms.1493
   
   for GFN2-xTB:
   * C. Bannwarth, S. Ehlert and S. Grimme., J. Chem. Theory Comput., 2019,
     15, 1652-1671. DOI: 10.1021/acs.jctc.8b01176
   for GFN1-xTB:
   * S. Grimme, C. Bannwarth, P. Shushkov, J. Chem. Theory Comput., 2017,
     13, 1989-2009. DOI: 10.1021/acs.jctc.7b00118
   for GFN0-xTB:
   * P. Pracht, E. Caldeweyher, S. Ehlert, S. Grimme, ChemRxiv, 2019, preprint.
     DOI: 10.26434/chemrxiv.8326202.v1
   for GFN-FF:
   * S. Spicher and S. Grimme, Angew. Chem. Int. Ed., 2020, 59, 15665-15673.
     DOI: 10.1002/anie.202004239
   
   for ALPB and GBSA implicit solvation:
   * S. Ehlert, M. Stahn, S. Spicher, S. Grimme, J. Chem. Theory Comput.,
     2021, 17, 4250-4261. DOI: 10.1021/acs.jctc.1c00471
   
   for DFT-D4:
   * E. Caldeweyher, C. Bannwarth and S. Grimme, J. Chem. Phys., 2017,
     147, 034112. DOI: 10.1063/1.4993215
   * E. Caldeweyher, S. Ehlert, A. Hansen, H. Neugebauer, S. Spicher,
     C. Bannwarth and S. Grimme, J. Chem. Phys., 2019, 150, 154122.
     DOI: 10.1063/1.5090222
   * E. Caldeweyher, J.-M. Mewes, S. Ehlert and S. Grimme, Phys. Chem. Chem. Phys.
     2020, 22, 8499-8512. DOI: 10.1039/D0CP00502A
   
   for sTDA-xTB:
   * S. Grimme and C. Bannwarth, J. Chem. Phys., 2016, 145, 054103.
     DOI: 10.1063/1.4959605
   
   in the mass-spec context:
   * V. Asgeirsson, C. Bauer and S. Grimme, Chem. Sci., 2017, 8, 4879.
     DOI: 10.1039/c7sc00601b
   * J. Koopman and S. Grimme, ACS Omega 2019, 4, 12, 15120-15133.
     DOI: 10.1021/acsomega.9b02011
   
   for metadynamics refer to:
   * S. Grimme, J. Chem. Theory Comput., 2019, 155, 2847-2862
     DOI: 10.1021/acs.jctc.9b00143
   
   for SPH calculations refer to:
   * S. Spicher and S. Grimme, J. Chem. Theory Comput., 2021, 17, 1701-1714
     DOI: 10.1021/acs.jctc.0c01306
   
   with help from (in alphabetical order)
   P. Atkinson, C. Bannwarth, F. Bohle, G. Brandenburg, E. Caldeweyher
   M. Checinski, S. Dohm, S. Ehlert, S. Ehrlich, I. Gerasimov, C. Hölzer
   A. Katbashev, J. Koopman, C. Lavigne, S. Lehtola, F. März, M. Müller,
   F. Musil, H. Neugebauer, J. Pisarek, C. Plett, P. Pracht, F. Pultar,
   J. Seibert, P. Shushkov, S. Spicher, M. Stahn, M. Steiner, T. Strunk,
   J. Stückrath, T. Rose, and J. Unsleber
   
 * started run on 2025/05/23 at 13:08:55.245     

           -------------------------------------------------
          |                Calculation Setup                |
           -------------------------------------------------

          program call               : /gpfs/fs1/home/copan/code/autode-practice/.pixi/envs/default/bin/xtb p0_C5H8O_conf0_opt_xtb.xyz --chrg 0 --uhf 0 --opt
          hostname                   : csed-0021
          coordinate file            : p0_C5H8O_conf0_opt_xtb.xyz
          omp threads                :                     8

   ID    Z sym.   atoms
    1    6 C      1-5
    2    8 O      6
    3    1 H      7-14

           -------------------------------------------------
          |                 G F N 2 - x T B                 |
           -------------------------------------------------

        Reference                      10.1021/acs.jctc.8b01176
      * Hamiltonian:
        H0-scaling (s, p, d)           1.850000    2.230000    2.230000
        zeta-weighting                 0.500000
      * Dispersion:
        s8                             2.700000
        a1                             0.520000
        a2                             5.000000
        s9                             5.000000
      * Repulsion:
        kExp                           1.500000    1.000000
        rExp                           1.000000
      * Coulomb:
        alpha                          2.000000
        third order                    shell-resolved
        anisotropic                    true
        a3                             3.000000
        a5                             4.000000
        cn-shift                       1.200000
        cn-exp                         4.000000
        max-rad                        5.000000


          ...................................................
          :                      SETUP                      :
          :.................................................:
          :  # basis functions                  32          :
          :  # atomic orbitals                  32          :
          :  # shells                           20          :
          :  # electrons                        34          :
          :  max. iterations                   250          :
          :  Hamiltonian                  GFN2-xTB          :
          :  restarted?                      false          :
          :  GBSA solvation                  false          :
          :  PC potential                    false          :
          :  electronic temp.          300.0000000     K    :
          :  accuracy                    1.0000000          :
          :  -> integral cutoff          0.2500000E+02      :
          :  -> integral neglect         0.1000000E-07      :
          :  -> SCF convergence          0.1000000E-05 Eh   :
          :  -> wf. convergence          0.1000000E-03 e    :
          :  Broyden damping             0.4000000          :
          ...................................................

 iter      E             dE          RMSdq      gap      omega  full diag
   1    -18.9846113 -0.189846E+02  0.360E+00   11.28       0.0  T
   2    -19.0246225 -0.400112E-01  0.194E+00   10.83       1.0  T
   3    -19.0251024 -0.479860E-03  0.851E-01   10.95       1.0  T
   4    -19.0254132 -0.310856E-03  0.152E-01   10.98       1.0  T
   5    -19.0255429 -0.129719E-03  0.641E-02   11.00       1.0  T
   6    -19.0255442 -0.124790E-05  0.838E-03   11.01       3.2  T
   7    -19.0255443 -0.142971E-06  0.369E-03   11.00       7.2  T
   8    -19.0255444 -0.316838E-07  0.120E-03   11.00      22.4  T
   9    -19.0255444 -0.230585E-08  0.476E-04   11.00      56.2  T
  10    -19.0255444 -0.181831E-09  0.602E-05   11.00     443.6  T

   *** convergence criteria satisfied after 10 iterations ***

         #    Occupation            Energy/Eh            Energy/eV
      -------------------------------------------------------------
         1        2.0000           -0.7138279             -19.4242
       ...           ...                  ...                  ...
        11        2.0000           -0.4715993             -12.8329
        12        2.0000           -0.4660530             -12.6819
        13        2.0000           -0.4605215             -12.5314
        14        2.0000           -0.4552635             -12.3883
        15        2.0000           -0.4448381             -12.1047
        16        2.0000           -0.4315754             -11.7438
        17        2.0000           -0.3937898             -10.7156 (HOMO)
        18                          0.0106339               0.2894 (LUMO)
        19                          0.0236609               0.6438
        20                          0.0558069               1.5186
        21                          0.0788629               2.1460
        22                          0.0975787               2.6553
       ...                                ...                  ...
        32                          0.3780632              10.2876
      -------------------------------------------------------------
                  HL-Gap            0.4044237 Eh           11.0049 eV
             Fermi-level           -0.1915780 Eh           -5.2131 eV

 SCC (total)                   0 d,  0 h,  0 min,  0.007 sec
 SCC setup                      ...        0 min,  0.000 sec (  2.512%)
 Dispersion                     ...        0 min,  0.000 sec (  1.666%)
 classical contributions        ...        0 min,  0.000 sec (  2.724%)
 integral evaluation            ...        0 min,  0.000 sec (  5.716%)
 iterations                     ...        0 min,  0.005 sec ( 73.418%)
 molecular gradient             ...        0 min,  0.001 sec ( 11.564%)
 printout                       ...        0 min,  0.000 sec (  2.071%)

         :::::::::::::::::::::::::::::::::::::::::::::::::::::
         ::                     SUMMARY                     ::
         :::::::::::::::::::::::::::::::::::::::::::::::::::::
         :: total energy             -18.802732165010 Eh    ::
         :: gradient norm              0.100579646521 Eh/a0 ::
         :: HOMO-LUMO gap             11.004929931405 eV    ::
         ::.................................................::
         :: SCC energy               -19.025544366014 Eh    ::
         :: -> isotropic ES            0.020169839171 Eh    ::
         :: -> anisotropic ES          0.002386714705 Eh    ::
         :: -> anisotropic XC          0.003147696699 Eh    ::
         :: -> dispersion             -0.008270902007 Eh    ::
         :: repulsion energy           0.222805373781 Eh    ::
         :: add. restraining           0.000000000000 Eh    ::
         :: total charge              -0.000000000000 e     ::
         :::::::::::::::::::::::::::::::::::::::::::::::::::::

      ----------------------------------------------------------- 
     |                   =====================                   |
     |                        A N C O P T                        |
     |                   =====================                   |
     |               Approximate Normal Coordinate               |
     |                Rational Function Optimizer                |
      ----------------------------------------------------------- 

          ...................................................
          :                      SETUP                      :
          :.................................................:
          :   optimization level            normal          :
          :   max. optcycles                   200          :
          :   ANC micro-cycles                  20          :
          :   degrees of freedom                36          :
          :.................................................:
          :   RF solver                   davidson          :
          :   write xtbopt.log                true          :
          :   linear?                        false          :
          :   energy convergence         0.5000000E-05 Eh   :
          :   grad. convergence          0.1000000E-02 Eh/α :
          :   maxmium RF displ.          1.0000000          :
          :   Hlow (freq-cutoff)         0.1000000E-01      :
          :   Hmax (freq-cutoff)         5.0000000          :
          :   S6 in model hess.         20.0000000          :
          ...................................................

generating ANC from model Hessian ...
Using Lindh-Hessian (1995)
 Shifting diagonal of input Hessian by    0.0000000000000000     
 Lowest  eigenvalues of input Hessian
    0.000000    0.000000    0.000000    0.000000    0.000000    0.000000
    0.015821    0.020859    0.043207    0.045536    0.046101    0.048411
    0.053912    0.062255    0.065343    0.076450    0.079529    0.084832
 Highest eigenvalues
    1.251438    1.337952    1.414793    1.467623    1.542203    1.696435


........................................................................
.............................. CYCLE    1 ..............................
........................................................................

 iter      E             dE          RMSdq      gap      omega  full diag
   1    -19.0255444 -0.190255E+02  0.250E-05   11.00       0.0  T
   2    -19.0255444 -0.824230E-12  0.126E-05   11.00    2116.0  T
   3    -19.0255444 -0.817124E-13  0.490E-06   11.00    5449.4  T
     SCC iter.                  ...        0 min,  0.002 sec
     gradient                   ...        0 min,  0.001 sec
 * total energy  :   -18.8027322 Eh     change       -0.9798384E-11 Eh
   gradient norm :     0.1005793 Eh/α   predicted     0.0000000E+00 (-100.00%)
   displ. norm   :     0.3687639 α      lambda       -0.1985992E-01
   maximum displ.:     0.1740530 α      in ANC's #11, #1, #17, ...

........................................................................
.............................. CYCLE    2 ..............................
........................................................................

 iter      E             dE          RMSdq      gap      omega  full diag
   1    -19.0304370 -0.190304E+02  0.482E-01   10.98       0.0  T
   2    -19.0304806 -0.436148E-04  0.284E-01   10.96       1.0  T
   3    -19.0304821 -0.153112E-05  0.282E-02   10.94       1.0  T
   4    -19.0304870 -0.488736E-05  0.846E-03   10.94       3.2  T
   5    -19.0304872 -0.233149E-06  0.346E-03   10.94       7.7  T
   6    -19.0304873 -0.467665E-08  0.131E-03   10.94      20.3  T
   7    -19.0304873 -0.329047E-08  0.259E-04   10.94     103.2  T
   8    -19.0304873 -0.489280E-10  0.925E-05   10.94     288.8  T
     SCC iter.                  ...        0 min,  0.003 sec
     gradient                   ...        0 min,  0.001 sec
 * total energy  :   -18.8150792 Eh     change       -0.1234707E-01 Eh
   gradient norm :     0.0333710 Eh/α   predicted    -0.1128031E-01 (  -8.64%)
   displ. norm   :     0.2754086 α      lambda       -0.3163391E-02
   maximum displ.:     0.2339326 α      in ANC's #1, #2, #11, ...

........................................................................
.............................. CYCLE    3 ..............................
........................................................................

 iter      E             dE          RMSdq      gap      omega  full diag
   1    -19.0293965 -0.190294E+02  0.186E-01   10.81       0.0  T
   2    -19.0294167 -0.201701E-04  0.112E-01   10.80       1.0  T
   3    -19.0294130  0.370772E-05  0.313E-02   10.79       1.0  T
   4    -19.0294200 -0.695341E-05  0.492E-03   10.79       5.4  T
   5    -19.0294200 -0.663007E-07  0.170E-03   10.79      15.8  T
   6    -19.0294200 -0.334310E-08  0.837E-04   10.79      31.9  T
   7    -19.0294200 -0.809553E-09  0.181E-04   10.79     147.6  T
     SCC iter.                  ...        0 min,  0.003 sec
     gradient                   ...        0 min,  0.001 sec
 * total energy  :   -18.8170295 Eh     change       -0.1950249E-02 Eh
   gradient norm :     0.0127153 Eh/α   predicted    -0.1701667E-02 ( -12.75%)
   displ. norm   :     0.1890820 α      lambda       -0.7158488E-03
   maximum displ.:     0.1792623 α      in ANC's #1, #6, #14, ...

........................................................................
.............................. CYCLE    4 ..............................
........................................................................

 iter      E             dE          RMSdq      gap      omega  full diag
   1    -19.0290161 -0.190290E+02  0.866E-02   10.72       0.0  T
   2    -19.0290218 -0.561918E-05  0.517E-02   10.72       1.0  T
   3    -19.0290210  0.800993E-06  0.176E-02   10.72       1.5  T
   4    -19.0290227 -0.173258E-05  0.217E-03   10.72      12.3  T
   5    -19.0290227 -0.115219E-07  0.979E-04   10.72      27.3  T
   6    -19.0290227 -0.900240E-09  0.438E-04   10.72      61.0  T
     SCC iter.                  ...        0 min,  0.002 sec
     gradient                   ...        0 min,  0.001 sec
 * total energy  :   -18.8175325 Eh     change       -0.5029721E-03 Eh
   gradient norm :     0.0073235 Eh/α   predicted    -0.3707191E-03 ( -26.29%)
   displ. norm   :     0.1831546 α      lambda       -0.3864282E-03
   maximum displ.:     0.1740007 α      in ANC's #1, #5, #3, ...

........................................................................
.............................. CYCLE    5 ..............................
........................................................................

 iter      E             dE          RMSdq      gap      omega  full diag
   1    -19.0298587 -0.190299E+02  0.679E-02   10.69       0.0  T
   2    -19.0298605 -0.176893E-05  0.404E-02   10.69       1.0  T
   3    -19.0298601  0.423846E-06  0.100E-02   10.69       2.7  T
   4    -19.0298608 -0.761088E-06  0.165E-03   10.69      16.2  T
   5    -19.0298608 -0.355251E-08  0.811E-04   10.69      32.9  T
   6    -19.0298608 -0.665842E-09  0.284E-04   10.69      94.1  T
     SCC iter.                  ...        0 min,  0.002 sec
     gradient                   ...        0 min,  0.001 sec
 * total energy  :   -18.8177745 Eh     change       -0.2420282E-03 Eh
   gradient norm :     0.0057971 Eh/α   predicted    -0.1996952E-03 ( -17.49%)
   displ. norm   :     0.0738382 α      lambda       -0.8611928E-04
   maximum displ.:     0.0684915 α      in ANC's #1, #5, #19, ...

........................................................................
.............................. CYCLE    6 ..............................
........................................................................

 iter      E             dE          RMSdq      gap      omega  full diag
   1    -19.0312451 -0.190312E+02  0.304E-02   10.71       0.0  T
   2    -19.0312453 -0.201678E-06  0.180E-02   10.71       1.5  T
   3    -19.0312453  0.117853E-07  0.254E-03   10.71      10.5  T
   4    -19.0312454 -0.492443E-07  0.736E-04   10.71      36.3  T
   5    -19.0312454 -0.499455E-09  0.373E-04   10.71      71.7  T
     SCC iter.                  ...        0 min,  0.002 sec
     gradient                   ...        0 min,  0.001 sec
 * total energy  :   -18.8178303 Eh     change       -0.5584559E-04 Eh
   gradient norm :     0.0036051 Eh/α   predicted    -0.4329619E-04 ( -22.47%)
   displ. norm   :     0.0331968 α      lambda       -0.2178114E-04
   maximum displ.:     0.0308989 α      in ANC's #1, #19, #22, ...

........................................................................
.............................. CYCLE    7 ..............................
........................................................................

 iter      E             dE          RMSdq      gap      omega  full diag
   1    -19.0318083 -0.190318E+02  0.147E-02   10.74       0.0  T
   2    -19.0318085 -0.265180E-06  0.867E-03   10.74       3.1  T
   3    -19.0318085  0.674612E-08  0.366E-03   10.74       7.3  T
   4    -19.0318086 -0.494509E-07  0.444E-04   10.74      60.2  T
   5    -19.0318086 -0.395346E-09  0.200E-04   10.74     133.9  T
     SCC iter.                  ...        0 min,  0.002 sec
     gradient                   ...        0 min,  0.001 sec
 * total energy  :   -18.8178436 Eh     change       -0.1331221E-04 Eh
   gradient norm :     0.0014855 Eh/α   predicted    -0.1090436E-04 ( -18.09%)
   displ. norm   :     0.0116883 α      lambda       -0.3378488E-05
   maximum displ.:     0.0094773 α      in ANC's #1, #2, #15, ...

........................................................................
.............................. CYCLE    8 ..............................
........................................................................

 iter      E             dE          RMSdq      gap      omega  full diag
   1    -19.0318575 -0.190319E+02  0.820E-03   10.76       0.0  T
   2    -19.0318577 -0.179204E-06  0.482E-03   10.76       5.5  T
   3    -19.0318577 -0.181965E-07  0.254E-03   10.76      10.5  T
   4    -19.0318577 -0.103713E-07  0.281E-04   10.76      95.0  T
   5    -19.0318577 -0.221409E-09  0.909E-05   10.76     293.9  T
     SCC iter.                  ...        0 min,  0.002 sec
     gradient                   ...        0 min,  0.001 sec
 * total energy  :   -18.8178458 Eh     change       -0.2198064E-05 Eh
   gradient norm :     0.0004688 Eh/α   predicted    -0.1690587E-05 ( -23.09%)
   displ. norm   :     0.0049222 α      lambda       -0.3790340E-06
   maximum displ.:     0.0042275 α      in ANC's #1, #5, #19, ...

   *** GEOMETRY OPTIMIZATION CONVERGED AFTER 8 ITERATIONS ***

------------------------------------------------------------------------
 total energy gain   :        -0.0151137 Eh       -9.4840 kcal/mol
 total RMSD          :         0.2629589 a0        0.1392 Å
 total power (kW/mol):        -4.9601191 (step)-1195.4569 (real)
------------------------------------------------------------------------

 ANCopt (total)                0 d,  0 h,  0 min,  0.033 sec
 optimizer setup                ...        0 min,  0.000 sec (  0.283%)
 model hessian                  ...        0 min,  0.004 sec ( 12.546%)
 ANC generation                 ...        0 min,  0.000 sec (  0.971%)
 coordinate transformation      ...        0 min,  0.000 sec (  0.112%)
 single point calculation       ...        0 min,  0.026 sec ( 78.182%)
 optimization log               ...        0 min,  0.001 sec (  1.814%)
 hessian update                 ...        0 min,  0.000 sec (  0.303%)
 rational function              ...        0 min,  0.001 sec (  2.523%)

================
 final structure:
================
14
 xtb: 6.6.1 (8d0f1dd)
C            1.14578066471265        0.49693531295445        0.14417172946192
C            0.39765663918111       -0.45573436478773        1.10197235694392
C           -0.98938346084926       -0.33523124508746        0.44823683072903
C           -0.67483720587573       -0.51677061903801       -1.04027931131441
C           -0.05459969343024        0.85358452384601       -0.74861104841816
O           -1.09871588834821        1.07929883162645        0.21422595822571
H            1.53788575570670        1.37507861226821        0.65182205220504
H            1.94434482915999        0.01353660011666       -0.41433595239901
H            0.77407749179344       -1.47607833134548        1.08238490876072
H            0.38667712962179       -0.09272351880927        2.12718194324122
H           -1.84235290781461       -0.79029296447860        0.94256094366024
H           -1.56014154122461       -0.44909179934417       -1.66512064803697
H           -0.02820191528873       -1.33454070051373       -1.34762157005491
H            0.06181010265570        1.63202966259267       -1.49668819300435

 Bond Distances (Angstroems)
 ---------------------------
C1-C2=1.5442         C1-C5=1.5379         C1-H7=1.0875         C1-H8=1.0878         C2-C1=1.5442         C2-C3=1.5381         
C2-H9=1.0877         C2-H10=1.0876        C3-C2=1.5381         C3-C4=1.5322         C3-C5=1.9286         C3-O6=1.4379         
C3-H11=1.0858        C4-C3=1.5322         C4-C5=1.5322         C4-H12=1.0857        C4-H13=1.0869        C5-C1=1.5379         
C5-C3=1.9286         C5-C4=1.5322         C5-O6=1.4381         C5-H14=1.0859        O6-C3=1.4379         O6-C5=1.4381         
H7-C1=1.0875         H8-C1=1.0878         H9-C2=1.0877         H10-C2=1.0876        H11-C3=1.0858        H12-C4=1.0857        
H13-C4=1.0869        H14-C5=1.0859        
 C  H  Rav=1.0869 sigma=0.0009  Rmin=1.0857  Rmax=1.0878     8
 C  C  Rav=1.6022 sigma=0.1460  Rmin=1.5322  Rmax=1.9286     6
 O  C  Rav=1.4380 sigma=0.0001  Rmin=1.4379  Rmax=1.4381     2

 selected bond angles (degree)
 --------------------
C5-C1-C2= 97.18                H7-C1-C2=112.54                H7-C1-C5=111.42                H8-C1-C2=113.58                
H8-C1-C5=112.21                H8-C1-H7=109.50                C3-C2-C1= 97.18                H9-C2-C1=113.57                
H9-C2-C3=112.20                H10-C2-C1=112.56               H10-C2-C3=111.43               H10-C2-H9=109.48               
C4-C3-C2=102.62                C5-C3-C2= 82.82                C5-C3-C4= 51.00                O6-C3-C2=102.40                
O6-C3-C4= 88.51                O6-C3-C5= 47.89                H11-C3-C2=118.82               H11-C3-C4=123.63               
H11-C3-C5=157.16               H11-C3-O6=115.25               C5-C4-C3= 78.01                H12-C4-C3=112.60               
H12-C4-C5=112.57               H13-C4-C3=119.08               H13-C4-C5=119.07               H13-C4-H12=111.67              
C3-C5-C1= 82.83                C4-C5-C1=102.65                C4-C5-C3= 51.00                O6-C5-C1=102.38                
O6-C5-C3= 47.88                O6-C5-C4= 88.51                H14-C5-C1=118.85               H14-C5-C3=157.13               
H14-C5-C4=123.60               H14-C5-O6=115.25               C5-O6-C3= 84.22                

 selected dihedral angles (degree)
 ---------------------------------
C3-C2-C1-C5=359.95            C3-C2-C1-H7=116.75            C3-C2-C1-H8=241.88            H9-C2-C1-C5=118.02            
H9-C2-C1-H7=234.81            H9-C2-C1-H8=359.94            H10-C2-C1-C5=243.14           H10-C2-C1-H7=359.93           
H10-C2-C1-H8=125.06           C4-C3-C2-C1= 47.33            C4-C3-C2-H9=288.20            C4-C3-C2-H10=165.03           
C5-C3-C2-C1=  0.04            C5-C3-C2-H9=240.91            C5-C3-C2-H10=117.73           O6-C3-C2-C1=316.07            
O6-C3-C2-H9=196.94            O6-C3-C2-H10= 73.76           H11-C3-C2-C1=187.78           H11-C3-C2-H9= 68.65           
H11-C3-C2-H10=305.48          C5-C4-C3-C2=290.26            C5-C4-C3-O6= 32.64            C5-C4-C3-H11=152.33           
H12-C4-C3-C2=180.58           H12-C4-C3-C5=250.33           H12-C4-C3-O6=282.96           H12-C4-C3-H11= 42.65          
H13-C4-C3-C2= 47.02           H13-C4-C3-C5=116.76           H13-C4-C3-O6=149.40           H13-C4-C3-H11=269.09          
C3-C5-C1-C2=  0.04            C3-C5-C1-H7=242.36            C3-C5-C1-H8=119.17            C4-C5-C1-C2=312.75            
C4-C5-C1-H7=195.08            C4-C5-C1-H8= 71.89            O6-C5-C1-C2= 44.01            O6-C5-C1-H7=286.34            
O6-C5-C1-H8=163.14            H14-C5-C1-C2=172.29           H14-C5-C1-H7= 54.62           H14-C5-C1-H8=291.43           
C1-C5-C4-C3= 69.72            C1-C5-C4-H12=179.43           C1-C5-C4-H13=312.96           C3-C5-C4-H12=109.71           
C3-C5-C4-H13=243.23           O6-C5-C4-C3=327.37            O6-C5-C4-H12= 77.07           O6-C5-C4-H13=210.60           
H14-C5-C4-C3=207.70           H14-C5-C4-H12=317.41          H14-C5-C4-H13= 90.94          C5-O6-C3-C2= 68.20            
C5-O6-C3-C4=325.60            C5-O6-C3-H11=198.71           C3-O6-C5-C1=291.77            C3-O6-C5-C4= 34.40            
C3-O6-C5-H14=161.25           
           -------------------------------------------------
          |                Final Singlepoint                |
           -------------------------------------------------

          ...................................................
          :                      SETUP                      :
          :.................................................:
          :  # basis functions                  32          :
          :  # atomic orbitals                  32          :
          :  # shells                           20          :
          :  # electrons                        34          :
          :  max. iterations                   250          :
          :  Hamiltonian                  GFN2-xTB          :
          :  restarted?                      false          :
          :  GBSA solvation                  false          :
          :  PC potential                    false          :
          :  electronic temp.          300.0000000     K    :
          :  accuracy                    1.0000000          :
          :  -> integral cutoff          0.2500000E+02      :
          :  -> integral neglect         0.1000000E-07      :
          :  -> SCF convergence          0.1000000E-05 Eh   :
          :  -> wf. convergence          0.1000000E-03 e    :
          :  Broyden damping             0.4000000          :
          ...................................................

 iter      E             dE          RMSdq      gap      omega  full diag
   1    -19.0318577 -0.190319E+02  0.374E-05   10.76       0.0  T
   2    -19.0318577 -0.650147E-12  0.224E-05   10.76    1191.9  T
   3    -19.0318577 -0.124345E-12  0.380E-06   10.76    7028.1  T

   *** convergence criteria satisfied after 3 iterations ***

         #    Occupation            Energy/Eh            Energy/eV
      -------------------------------------------------------------
         1        2.0000           -0.7032727             -19.1370
       ...           ...                  ...                  ...
        11        2.0000           -0.4684805             -12.7480
        12        2.0000           -0.4659832             -12.6800
        13        2.0000           -0.4599241             -12.5152
        14        2.0000           -0.4545652             -12.3693
        15        2.0000           -0.4485528             -12.2057
        16        2.0000           -0.4348074             -11.8317
        17        2.0000           -0.3976164             -10.8197 (HOMO)
        18                         -0.0021651              -0.0589 (LUMO)
        19                          0.0029284               0.0797
        20                          0.0237078               0.6451
        21                          0.0544803               1.4825
        22                          0.0789682               2.1488
       ...                                ...                  ...
        32                          0.3378163               9.1924
      -------------------------------------------------------------
                  HL-Gap            0.3954512 Eh           10.7608 eV
             Fermi-level           -0.1998908 Eh           -5.4393 eV

 SCC (total)                   0 d,  0 h,  0 min,  0.003 sec
 SCC setup                      ...        0 min,  0.000 sec (  2.951%)
 Dispersion                     ...        0 min,  0.000 sec (  2.176%)
 classical contributions        ...        0 min,  0.000 sec (  0.478%)
 integral evaluation            ...        0 min,  0.000 sec (  9.845%)
 iterations                     ...        0 min,  0.001 sec ( 53.531%)
 molecular gradient             ...        0 min,  0.001 sec ( 25.398%)
 printout                       ...        0 min,  0.000 sec (  4.804%)

         :::::::::::::::::::::::::::::::::::::::::::::::::::::
         ::                     SUMMARY                     ::
         :::::::::::::::::::::::::::::::::::::::::::::::::::::
         :: total energy             -18.817845841719 Eh    ::
         :: gradient norm              0.000468530772 Eh/a0 ::
         :: HOMO-LUMO gap             10.760775335119 eV    ::
         ::.................................................::
         :: SCC energy               -19.031857748044 Eh    ::
         :: -> isotropic ES            0.021931326803 Eh    ::
         :: -> anisotropic ES          0.002486116934 Eh    ::
         :: -> anisotropic XC          0.004266305979 Eh    ::
         :: -> dispersion             -0.008179610893 Eh    ::
         :: repulsion energy           0.214004202972 Eh    ::
         :: add. restraining           0.000000000000 Eh    ::
         :: total charge              -0.000000000000 e     ::
         :::::::::::::::::::::::::::::::::::::::::::::::::::::

           -------------------------------------------------
          |                Property Printout                |
           -------------------------------------------------

    * Orbital Energies and Occupations

         #    Occupation            Energy/Eh            Energy/eV
      -------------------------------------------------------------
         1        2.0000           -0.7032727             -19.1370
       ...           ...                  ...                  ...
         5        2.0000           -0.5760973             -15.6764
         6        2.0000           -0.5693826             -15.4937
         7        2.0000           -0.5535651             -15.0633
         8        2.0000           -0.5369123             -14.6101
         9        2.0000           -0.5286582             -14.3855
        10        2.0000           -0.5243498             -14.2683
        11        2.0000           -0.4684805             -12.7480
        12        2.0000           -0.4659832             -12.6800
        13        2.0000           -0.4599241             -12.5152
        14        2.0000           -0.4545652             -12.3693
        15        2.0000           -0.4485528             -12.2057
        16        2.0000           -0.4348074             -11.8317
        17        2.0000           -0.3976164             -10.8197 (HOMO)
        18                         -0.0021651              -0.0589 (LUMO)
        19                          0.0029284               0.0797
        20                          0.0237078               0.6451
        21                          0.0544803               1.4825
        22                          0.0789682               2.1488
        23                          0.1055033               2.8709
        24                          0.1098865               2.9902
        25                          0.1323933               3.6026
        26                          0.1608192               4.3761
        27                          0.1936245               5.2688
        28                          0.2100577               5.7160
       ...                                ...                  ...
        32                          0.3378163               9.1924
      -------------------------------------------------------------
                  HL-Gap            0.3954512 Eh           10.7608 eV
             Fermi-level           -0.1998908 Eh           -5.4393 eV

     #   Z          covCN         q      C6AA      α(0)
     1   6 C        3.865    -0.067    21.739     6.630
     2   6 C        3.865    -0.067    21.739     6.630
     3   6 C        4.404     0.114    18.631     6.130
     4   6 C        3.909    -0.073    21.832     6.641
     5   6 C        4.404     0.114    18.632     6.130
     6   8 O        1.775    -0.334    19.581     5.975
     7   1 H        0.925     0.047     2.355     2.400
     8   1 H        0.925     0.036     2.501     2.473
     9   1 H        0.925     0.036     2.501     2.473
    10   1 H        0.925     0.047     2.356     2.401
    11   1 H        0.925     0.033     2.544     2.494
    12   1 H        0.925     0.047     2.359     2.402
    13   1 H        0.925     0.033     2.548     2.496
    14   1 H        0.925     0.033     2.544     2.494

 Mol. C6AA /au·bohr⁶  :       1562.707029
 Mol. C8AA /au·bohr⁸  :      34196.962385
 Mol. α(0) /au        :         57.771187


Wiberg/Mayer (AO) data.
largest (>0.10) Wiberg bond orders for each atom

 ---------------------------------------------------------------------------
     #   Z sym  total        # sym  WBO       # sym  WBO       # sym  WBO
 ---------------------------------------------------------------------------
     1   6 C    3.996 --     2 C    1.003     5 C    0.985     8 H    0.980
                             7 H    0.980
     2   6 C    3.996 --     1 C    1.003     3 C    0.985     9 H    0.980
                            10 H    0.980
     3   6 C    3.944 --     4 C    0.988     2 C    0.985    11 H    0.968
                             6 O    0.960
     4   6 C    3.984 --     3 C    0.988     5 C    0.988    13 H    0.979
                            12 H    0.978
     5   6 C    3.944 --     4 C    0.988     1 C    0.985    14 H    0.968
                             6 O    0.960
     6   8 O    2.024 --     3 C    0.960     5 C    0.960
     7   1 H    0.998 --     1 C    0.980
     8   1 H    0.999 --     1 C    0.980
     9   1 H    0.999 --     2 C    0.980
    10   1 H    0.998 --     2 C    0.980
    11   1 H    0.999 --     3 C    0.968
    12   1 H    0.998 --     4 C    0.978
    13   1 H    0.999 --     4 C    0.979
    14   1 H    0.999 --     5 C    0.968
 ---------------------------------------------------------------------------

Topologies differ in total number of bonds
Writing topology from bond orders to xtbtopo.mol

molecular dipole:
                 x           y           z       tot (Debye)
 q only:        0.471      -0.558      -0.187
   full:        0.487      -0.614      -0.230       2.076
molecular quadrupole (traceless):
                xx          xy          yy          xz          yz          zz
 q only:       -0.581       2.788      -1.002       0.486      -1.147       1.583
  q+dip:       -0.595       3.085      -1.231       0.784      -1.125       1.826
   full:       -0.641       3.151      -1.147       0.560      -1.313       1.787

           -------------------------------------------------
          |                Geometry Summary                 |
           -------------------------------------------------

      molecular mass/u    :       84.1166104
   center of mass at/Å    :       -0.2187566       0.1979515       0.0258164
  moments of inertia/u·Å² :        0.8886774E+02   0.1081278E+03   0.1197184E+03
rotational constants/cm⁻¹ :        0.1896935E+00   0.1559046E+00   0.1408108E+00

 * 15 selected distances

     #   Z          #   Z                                           value/Å
     1   6 C        2   6 C                                       1.5442317 (max)
     2   6 C        3   6 C                                       1.5381066
     3   6 C        4   6 C                                       1.5321804
     1   6 C        5   6 C                                       1.5379120
     4   6 C        5   6 C                                       1.5322006
     3   6 C        6   8 O                                       1.4379188
     5   6 C        6   8 O                                       1.4381172
     1   6 C        7   1 H                                       1.0874701
     1   6 C        8   1 H                                       1.0878006
     2   6 C        9   1 H                                       1.0877400
     2   6 C       10   1 H                                       1.0876361
     3   6 C       11   1 H                                       1.0858152
     4   6 C       12   1 H                                       1.0857123 (min)
     4   6 C       13   1 H                                       1.0868968
     5   6 C       14   1 H                                       1.0858857

 * 3 distinct bonds (by element types)

   Z      Z             #   av. dist./Å        max./Å        min./Å
   1 H    6 C           8     1.0868696     1.0878006     1.0857123
   6 C    6 C           5     1.5369262     1.5442317     1.5321804
   6 C    8 O           2     1.4380180     1.4381172     1.4379188


optimized geometry written to: xtbopt.xyz


           -------------------------------------------------
          | TOTAL ENERGY              -18.817845841719 Eh   |
          | GRADIENT NORM               0.000468530772 Eh/α |
          | HOMO-LUMO GAP              10.760775335119 eV   |
           -------------------------------------------------

------------------------------------------------------------------------
 * finished run on 2025/05/23 at 13:08:55.299     
------------------------------------------------------------------------
 total:
 * wall-time:     0 d,  0 h,  0 min,  0.054 sec
 *  cpu-time:     0 d,  0 h,  0 min,  0.766 sec
 * ratio c/w:    14.286 speedup
 SCF:
 * wall-time:     0 d,  0 h,  0 min,  0.007 sec
 *  cpu-time:     0 d,  0 h,  0 min,  0.105 sec
 * ratio c/w:    14.575 speedup
 ANC optimizer:
 * wall-time:     0 d,  0 h,  0 min,  0.037 sec
 *  cpu-time:     0 d,  0 h,  0 min,  0.553 sec
 * ratio c/w:    15.045 speedup

