
                                 *****************
                                 * O   R   C   A *
                                 *****************

                                            #,                                       
                                            ###                                      
                                            ####                                     
                                            #####                                    
                                            ######                                   
                                           ########,                                 
                                     ,,################,,,,,                         
                               ,,#################################,,                 
                          ,,##########################################,,             
                       ,#########################################, ''#####,          
                    ,#############################################,,   '####,        
                  ,##################################################,,,,####,       
                ,###########''''           ''''###############################       
              ,#####''   ,,,,##########,,,,          '''####'''          '####       
            ,##' ,,,,###########################,,,                        '##       
           ' ,,###''''                  '''############,,,                           
         ,,##''                                '''############,,,,        ,,,,,,###''
      ,#''                                            '''#######################'''  
     '                                                          ''''####''''         
             ,#######,   #######,   ,#######,      ##                                
            ,#'     '#,  ##    ##  ,#'     '#,    #''#        ######   ,####,        
            ##       ##  ##   ,#'  ##            #'  '#       #        #'  '#        
            ##       ##  #######   ##           ,######,      #####,   #    #        
            '#,     ,#'  ##    ##  '#,     ,#' ,#      #,         ##   #,  ,#        
             '#######'   ##     ##  '#######'  #'      '#     #####' # '####'        



                  #######################################################
                  #                        -***-                        #
                  #          Department of theory and spectroscopy      #
                  #    Directorship and core code : Frank Neese         #
                  #        Max Planck Institute fuer Kohlenforschung    #
                  #                Kaiser Wilhelm Platz 1               #
                  #                 D-45470 Muelheim/Ruhr               #
                  #                      Germany                        #
                  #                                                     #
                  #                  All rights reserved                #
                  #                        -***-                        #
                  #######################################################


                         Program Version 5.0.4 -  RELEASE  -


 With contributions from (in alphabetic order):
   Daniel Aravena         : Magnetic Suceptibility
   Michael Atanasov       : Ab Initio Ligand Field Theory (pilot matlab implementation)
   Alexander A. Auer      : GIAO ZORA, VPT2 properties, NMR spectrum
   Ute Becker             : Parallelization
   Giovanni Bistoni       : ED, misc. LED, open-shell LED, HFLD
   Martin Brehm           : Molecular dynamics
   Dmytro Bykov           : SCF Hessian
   Vijay G. Chilkuri      : MRCI spin determinant printing, contributions to CSF-ICE
   Dipayan Datta          : RHF DLPNO-CCSD density
   Achintya Kumar Dutta   : EOM-CC, STEOM-CC
   Dmitry Ganyushin       : Spin-Orbit,Spin-Spin,Magnetic field MRCI
   Miquel Garcia          : C-PCM and meta-GGA Hessian, CC/C-PCM, Gaussian charge scheme
   Yang Guo               : DLPNO-NEVPT2, F12-NEVPT2, CIM, IAO-localization
   Andreas Hansen         : Spin unrestricted coupled pair/coupled cluster methods
   Benjamin Helmich-Paris : MC-RPA, TRAH-SCF, COSX integrals
   Lee Huntington         : MR-EOM, pCC
   Robert Izsak           : Overlap fitted RIJCOSX, COSX-SCS-MP3, EOM
   Marcus Kettner         : VPT2
   Christian Kollmar      : KDIIS, OOCD, Brueckner-CCSD(T), CCSD density, CASPT2, CASPT2-K
   Simone Kossmann        : Meta GGA functionals, TD-DFT gradient, OOMP2, MP2 Hessian
   Martin Krupicka        : Initial AUTO-CI
   Lucas Lang             : DCDCAS
   Marvin Lechner         : AUTO-CI (C++ implementation), FIC-MRCC
   Dagmar Lenk            : GEPOL surface, SMD
   Dimitrios Liakos       : Extrapolation schemes; Compound Job, initial MDCI parallelization
   Dimitrios Manganas     : Further ROCIS development; embedding schemes
   Dimitrios Pantazis     : SARC Basis sets
   Anastasios Papadopoulos: AUTO-CI, single reference methods and gradients
   Taras Petrenko         : DFT Hessian,TD-DFT gradient, ASA, ECA, R-Raman, ABS, FL, XAS/XES, NRVS
   Peter Pinski           : DLPNO-MP2, DLPNO-MP2 Gradient
   Christoph Reimann      : Effective Core Potentials
   Marius Retegan         : Local ZFS, SOC
   Christoph Riplinger    : Optimizer, TS searches, QM/MM, DLPNO-CCSD(T), (RO)-DLPNO pert. Triples
   Tobias Risthaus        : Range-separated hybrids, TD-DFT gradient, RPA, STAB
   Michael Roemelt        : Original ROCIS implementation
   Masaaki Saitow         : Open-shell DLPNO-CCSD energy and density
   Barbara Sandhoefer     : DKH picture change effects
   Avijit Sen             : IP-ROCIS
   Kantharuban Sivalingam : CASSCF convergence, NEVPT2, FIC-MRCI
   Bernardo de Souza      : ESD, SOC TD-DFT
   Georgi Stoychev        : AutoAux, RI-MP2 NMR, DLPNO-MP2 response
   Willem Van den Heuvel  : Paramagnetic NMR
   Boris Wezisla          : Elementary symmetry handling
   Frank Wennmohs         : Technical directorship


 We gratefully acknowledge several colleagues who have allowed us to
 interface, adapt or use parts of their codes:
   Stefan Grimme, W. Hujo, H. Kruse, P. Pracht,  : VdW corrections, initial TS optimization,
                  C. Bannwarth, S. Ehlert          DFT functionals, gCP, sTDA/sTD-DF
   Ed Valeev, F. Pavosevic, A. Kumar             : LibInt (2-el integral package), F12 methods
   Garnet Chan, S. Sharma, J. Yang, R. Olivares  : DMRG
   Ulf Ekstrom                                   : XCFun DFT Library
   Mihaly Kallay                                 : mrcc  (arbitrary order and MRCC methods)
   Jiri Pittner, Ondrej Demel                    : Mk-CCSD
   Frank Weinhold                                : gennbo (NPA and NBO analysis)
   Christopher J. Cramer and Donald G. Truhlar   : smd solvation model
   Lars Goerigk                                  : TD-DFT with DH, B97 family of functionals
   V. Asgeirsson, H. Jonsson                     : NEB implementation
   FAccTs GmbH                                   : IRC, NEB, NEB-TS, DLPNO-Multilevel, CI-OPT
                                                   MM, QMMM, 2- and 3-layer-ONIOM, Crystal-QMMM,
                                                   LR-CPCM, SF, NACMEs, symmetry and pop. for TD-DFT,
                                                   nearIR, NL-DFT gradient (VV10), updates on ESD,
                                                   ML-optimized integration grids
   S Lehtola, MJT Oliveira, MAL Marques          : LibXC Library
   Liviu Ungur et al                             : ANISO software


 Your calculation uses the libint2 library for the computation of 2-el integrals
 For citations please refer to: http://libint.valeyev.net

 Your ORCA version has been built with support for libXC version: 5.1.0
 For citations please refer to: https://tddft.org/programs/libxc/

 This ORCA versions uses:
   CBLAS   interface :  Fast vector & matrix operations
   LAPACKE interface :  Fast linear algebra routines
   SCALAPACK package :  Parallel linear algebra routines
   Shared memory     :  Shared parallel matrices
   BLAS/LAPACK       :  OpenBLAS 0.3.15  USE64BITINT DYNAMIC_ARCH NO_AFFINITY SkylakeX SINGLE_THREADED
        Core in use  :  SkylakeX
   Copyright (c) 2011-2014, The OpenBLAS Project


Your calculation utilizes the atom-pairwise dispersion correction
with the Becke-Johnson damping scheme (D3BJ)
Cite in your paper:
S.Grimme, S.Ehrlich, L.Goerigk, J Comput Chem, (2011), 32, 1456–1465 
S.Grimme, J.Antony, S.Ehrlich and H.Krieg, J.Chem.Phys., 132, (2010), 154104 
   

================================================================================

----- Orbital basis set information -----
Your calculation utilizes the basis: def2-SVP
   F. Weigend and R. Ahlrichs, Phys. Chem. Chem. Phys. 7, 3297 (2005).

----- AuxJ basis set information -----
Your calculation utilizes the auxiliary basis: def2/J
   F. Weigend, Phys. Chem. Chem. Phys. 8, 1057 (2006).

================================================================================
                                        WARNINGS
                       Please study these warnings very carefully!
================================================================================


WARNING: Geometry Optimization
  ===> : Switching off AutoStart
         For restart on a previous wavefunction, please use MOREAD

INFO   : the flag for use of the SHARK integral package has been found!

================================================================================
                                       INPUT FILE
================================================================================
NAME = p0_C5H8O_conf0_opt_orca.inp
|  1> ! LooseOpt PBE0 RIJCOSX D3BJ def2-SVP def2/J 
|  2> %geom MaxIter 10 end
|  3> %output 
|  4> xyzfile=True 
|  5> end 
|  6> %scf 
|  7> maxiter 250 
|  8> end
|  9> %output
| 10> Print[P_Hirshfeld] = 1
| 11> end
| 12> % maxcore
| 13> 4000
| 14> %pal nprocs 8
| 15> end
| 16> *xyz 0 1
| 17> C    1.14578066   0.49693531   0.14417173 
| 18> C    0.39765664  -0.45573436   1.10197236 
| 19> C   -0.98938346  -0.33523125   0.44823683 
| 20> C   -0.67483721  -0.51677062  -1.04027931 
| 21> C   -0.05459969   0.85358452  -0.74861105 
| 22> O   -1.09871589   1.07929883   0.21422596 
| 23> H    1.53788576   1.37507861   0.65182205 
| 24> H    1.94434483   0.01353660  -0.41433595 
| 25> H    0.77407749  -1.47607833   1.08238491 
| 26> H    0.38667713  -0.09272352   2.12718194 
| 27> H   -1.84235291  -0.79029296   0.94256094 
| 28> H   -1.56014154  -0.44909180  -1.66512065 
| 29> H   -0.02820192  -1.33454070  -1.34762157 
| 30> H    0.06181010   1.63202966  -1.49668819 
| 31> *
| 32> 
| 33>                          ****END OF INPUT****
================================================================================

                       *****************************
                       * Geometry Optimization Run *
                       *****************************

Geometry optimization settings:
Update method            Update   .... BFGS
Choice of coordinates    CoordSys .... Z-matrix Internals
Initial Hessian          InHess   .... Almoef's Model

Convergence Tolerances:
Energy Change            TolE     ....  3.0000e-05 Eh
Max. Gradient            TolMAXG  ....  2.0000e-03 Eh/bohr
RMS Gradient             TolRMSG  ....  5.0000e-04 Eh/bohr
Max. Displacement        TolMAXD  ....  1.0000e-02 bohr
RMS Displacement         TolRMSD  ....  7.0000e-03 bohr
Strict Convergence                ....  False
------------------------------------------------------------------------------
                        ORCA OPTIMIZATION COORDINATE SETUP
------------------------------------------------------------------------------

The optimization will be done in new redundant internal coordinates
Making redundant internal coordinates   ...  (new redundants) done
Evaluating the initial hessian          ...  (Almloef) done
Evaluating the coordinates              ...  done
Calculating the B-matrix                .... done
Calculating the G-matrix                .... done
Diagonalizing the G-matrix              .... done
The first mode is                       ....   94
The number of degrees of freedom        ....   36

    -----------------------------------------------------------------
                    Redundant Internal Coordinates


    -----------------------------------------------------------------
         Definition                    Initial Value    Approx d2E/dq
    -----------------------------------------------------------------
      1. B(C   1,C   0)                  1.5442         0.354545   
      2. B(C   2,C   1)                  1.5381         0.362614   
      3. B(C   3,C   2)                  1.5322         0.370595   
      4. B(C   4,C   0)                  1.5379         0.362873   
      5. B(C   4,C   2)                  1.9286         0.086381   
      6. B(C   4,C   3)                  1.5322         0.370567   
      7. B(O   5,C   2)                  1.4379         0.469272   
      8. B(O   5,C   4)                  1.4381         0.468930   
      9. B(H   6,C   0)                  1.0875         0.363463   
     10. B(H   7,C   0)                  1.0878         0.363021   
     11. B(H   8,C   1)                  1.0877         0.363102   
     12. B(H   9,C   1)                  1.0876         0.363241   
     13. B(H  10,C   2)                  1.0858         0.365679   
     14. B(H  11,C   3)                  1.0857         0.365817   
     15. B(H  12,C   3)                  1.0869         0.364229   
     16. B(H  13,C   4)                  1.0859         0.365584   
     17. A(C   4,C   0,H   7)          112.2094         0.323204   
     18. A(C   1,C   0,H   7)          113.5751         0.321976   
     19. A(C   1,C   0,C   4)           97.1803         0.358346   
     20. A(H   6,C   0,H   7)          109.5011         0.291635   
     21. A(C   1,C   0,H   6)          112.5389         0.322040   
     22. A(C   4,C   0,H   6)          111.4175         0.323268   
     23. A(C   2,C   1,H   9)          111.4309         0.323198   
     24. A(C   0,C   1,H   9)          112.5587         0.322008   
     25. A(C   0,C   1,H   8)          113.5704         0.321988   
     26. A(C   0,C   1,C   2)           97.1766         0.358303   
     27. A(H   8,C   1,H   9)          109.4843         0.291617   
     28. A(C   2,C   1,H   8)          112.2041         0.323178   
     29. A(O   5,C   2,H  10)          115.2545         0.335602   
     30. A(C   3,C   2,H  10)          123.6347         0.324711   
     31. A(C   1,C   2,H  10)          118.8209         0.323553   
     32. A(C   4,C   2,O   5)           47.8925         0.294681   
     33. A(C   1,C   2,C   3)          102.6210         0.361015   
     34. A(C   3,C   2,O   5)           88.5137         0.374989   
     35. A(C   1,C   2,O   5)          102.4043         0.373583   
     36. A(C   3,C   2,C   4)           50.9972         0.285598   
     37. A(C   4,C   2,H  10)          157.1625         0.258522   
     38. A(C   1,C   2,C   4)           82.8172         0.284631   
     39. A(C   2,C   3,H  11)          112.6020         0.324732   
     40. A(C   2,C   3,C   4)           78.0065         0.362354   
     41. A(C   4,C   3,H  12)          119.0722         0.324496   
     42. A(C   2,C   3,H  12)          119.0777         0.324499   
     43. A(C   4,C   3,H  11)          112.5744         0.324728   
     44. A(H  11,C   3,H  12)          111.6714         0.292084   
     45. A(C   3,C   4,O   5)           88.5057         0.374937   
     46. A(C   2,C   4,O   5)           47.8838         0.294647   
     47. A(C   0,C   4,O   5)          102.3815         0.373583   
     48. A(C   0,C   4,C   2)           82.8258         0.284663   
     49. A(C   3,C   4,H  13)          123.6012         0.324694   
     50. A(C   2,C   4,H  13)          157.1271         0.258512   
     51. A(C   0,C   4,H  13)          118.8485         0.323577   
     52. A(C   2,C   4,C   3)           50.9963         0.285594   
     53. A(C   0,C   4,C   3)          102.6536         0.361054   
     54. A(O   5,C   4,H  13)          115.2489         0.335547   
     55. A(C   2,O   5,C   4)           84.2237         0.388154   
     56. D(H   9,C   1,C   0,H   6)     -0.0668         0.010107   
     57. D(H   9,C   1,C   0,H   7)    125.0640         0.010107   
     58. D(C   2,C   1,C   0,H   6)    116.7464         0.010107   
     59. D(C   2,C   1,C   0,C   4)     -0.0465         0.010107   
     60. D(H   8,C   1,C   0,H   6)   -125.1871         0.010107   
     61. D(H   8,C   1,C   0,H   7)     -0.0564         0.010107   
     62. D(C   2,C   1,C   0,H   7)   -118.1228         0.010107   
     63. D(H   9,C   1,C   0,C   4)   -116.8597         0.010107   
     64. D(H   8,C   1,C   0,C   4)    118.0199         0.010107   
     65. D(C   4,C   2,C   1,H   9)    117.7346         0.011166   
     66. D(H  10,C   2,C   1,H   9)    -54.5239         0.011166   
     67. D(C   3,C   2,C   1,H   8)    -71.7955         0.011166   
     68. D(C   3,C   2,C   1,C   0)     47.3291         0.011166   
     69. D(H  10,C   2,C   1,C   0)   -172.2215         0.011166   
     70. D(H  10,C   2,C   1,H   8)     68.6540         0.011166   
     71. D(O   5,C   2,C   1,H   8)   -163.0579         0.011166   
     72. D(O   5,C   2,C   1,H   9)     73.7642         0.011166   
     73. D(O   5,C   2,C   1,C   0)    -43.9333         0.011166   
     74. D(C   4,C   2,C   1,H   8)   -119.0875         0.011166   
     75. D(C   4,C   2,C   1,C   0)      0.0371         0.011166   
     76. D(C   3,C   2,C   1,H   9)    165.0266         0.011166   
     77. D(H  11,C   3,C   2,H  10)     42.6544         0.011635   
     78. D(C   4,C   3,C   2,O   5)     32.6360         0.011635   
     79. D(C   4,C   3,C   2,H  10)    152.3280         0.011635   
     80. D(H  11,C   3,C   2,C   1)   -179.4174         0.011635   
     81. D(C   4,C   3,C   2,C   1)    -69.7438         0.011635   
     82. D(H  11,C   3,C   2,C   4)   -109.6736         0.011635   
     83. D(H  11,C   3,C   2,O   5)    -77.0376         0.011635   
     84. D(H  12,C   3,C   2,C   4)    116.7605         0.011635   
     85. D(H  12,C   3,C   2,O   5)    149.3965         0.011635   
     86. D(H  12,C   3,C   2,C   1)     47.0167         0.011635   
     87. D(H  12,C   3,C   2,H  10)    -90.9115         0.011635   
     88. D(C   2,C   4,C   3,H  11)    109.7056         0.011633   
     89. D(C   0,C   4,C   3,H  12)    -47.0421         0.011633   
     90. D(C   0,C   4,C   3,H  11)    179.4300         0.011633   
     91. D(H  13,C   4,C   2,H  10)     -0.0590         0.002007   
     92. D(H  13,C   4,C   2,O   5)    -48.4193         0.002007   
     93. D(H  13,C   4,C   2,C   3)     84.9716         0.002007   
     94. D(O   5,C   4,C   2,H  10)     48.3603         0.002007   
     95. D(O   5,C   4,C   2,C   3)    133.3909         0.002007   
     96. D(O   5,C   4,C   2,C   1)   -113.9371         0.002007   
     97. D(C   3,C   4,C   2,H  10)    -85.0306         0.002007   
     98. D(C   3,C   4,C   2,O   5)   -133.3909         0.002007   
     99. D(C   3,C   4,C   2,C   1)    112.6720         0.002007   
    100. D(C   0,C   4,C   2,H  10)    162.2602         0.002007   
    101. D(C   0,C   4,C   2,O   5)    113.8999         0.002007   
    102. D(C   0,C   4,C   2,C   3)   -112.7092         0.002007   
    103. D(C   0,C   4,C   2,C   1)     -0.0372         0.002007   
    104. D(H  13,C   4,C   0,H   7)    -68.5747         0.011181   
    105. D(H  13,C   4,C   0,H   6)     54.6191         0.011181   
    106. D(H  13,C   4,C   0,C   1)    172.2914         0.011181   
    107. D(O   5,C   4,C   0,H   7)    163.1448         0.011181   
    108. D(O   5,C   4,C   0,H   6)    -73.6614         0.011181   
    109. D(H  13,C   4,C   2,C   1)   -162.3564         0.002007   
    110. D(O   5,C   4,C   0,C   1)     44.0109         0.011181   
    111. D(C   3,C   4,C   0,H   7)     71.8887         0.011181   
    112. D(C   3,C   4,C   0,H   6)   -164.9175         0.011181   
    113. D(C   0,C   4,C   3,C   2)     69.7244         0.011633   
    114. D(C   3,C   4,C   0,C   1)    -47.2452         0.011181   
    115. D(C   2,C   4,C   0,H   7)    119.1710         0.011181   
    116. D(H  13,C   4,C   3,H  11)    -42.5928         0.011633   
    117. D(C   2,C   4,C   3,H  12)   -116.7665         0.011633   
    118. D(C   2,C   4,C   0,H   6)   -117.6353         0.011181   
    119. D(H  13,C   4,C   3,C   2)   -152.2984         0.011633   
    120. D(O   5,C   4,C   3,H  12)   -149.3976         0.011633   
    121. D(C   2,C   4,C   0,C   1)      0.0371         0.011181   
    122. D(O   5,C   4,C   3,H  11)     77.0746         0.011633   
    123. D(H  13,C   4,C   3,H  12)     90.9351         0.011633   
    124. D(O   5,C   4,C   3,C   2)    -32.6311         0.011633   
    125. D(C   2,O   5,C   4,H  13)    161.2489         0.018786   
    126. D(C   2,O   5,C   4,C   3)     34.3955         0.018786   
    127. D(C   2,O   5,C   4,C   0)    -68.2326         0.018786   
    128. D(C   4,O   5,C   2,H  10)   -161.2942         0.018814   
    129. D(C   4,O   5,C   2,C   3)    -34.3959         0.018814   
    130. D(C   4,O   5,C   2,C   1)     68.2011         0.018814   
    -----------------------------------------------------------------

Number of atoms                         .... 14
Number of degrees of freedom            .... 130

         *************************************************************
         *                GEOMETRY OPTIMIZATION CYCLE   1            *
         *************************************************************
---------------------------------
CARTESIAN COORDINATES (ANGSTROEM)
---------------------------------
  C      1.145781    0.496935    0.144172
  C      0.397657   -0.455734    1.101972
  C     -0.989383   -0.335231    0.448237
  C     -0.674837   -0.516771   -1.040279
  C     -0.054600    0.853585   -0.748611
  O     -1.098716    1.079299    0.214226
  H      1.537886    1.375079    0.651822
  H      1.944345    0.013537   -0.414336
  H      0.774077   -1.476078    1.082385
  H      0.386677   -0.092724    2.127182
  H     -1.842353   -0.790293    0.942561
  H     -1.560142   -0.449092   -1.665121
  H     -0.028202   -1.334541   -1.347622
  H      0.061810    1.632030   -1.496688

----------------------------
CARTESIAN COORDINATES (A.U.)
----------------------------
  NO LB      ZA    FRAG     MASS         X           Y           Z
   0 C     6.0000    0    12.011    2.165212    0.939072    0.272445
   1 C     6.0000    0    12.011    0.751462   -0.861213    2.082426
   2 C     6.0000    0    12.011   -1.869664   -0.633495    0.847045
   3 C     6.0000    0    12.011   -1.275258   -0.976555   -1.965843
   4 C     6.0000    0    12.011   -0.103178    1.613041   -1.414670
   5 O     8.0000    0    15.999   -2.076272    2.039579    0.404828
   6 H     1.0000    0     1.008    2.906183    2.598522    1.231765
   7 H     1.0000    0     1.008    3.674279    0.025580   -0.782981
   8 H     1.0000    0     1.008    1.462794   -2.789384    2.045411
   9 H     1.0000    0     1.008    0.730714   -0.175222    4.019791
  10 H     1.0000    0     1.008   -3.481542   -1.493437    1.781182
  11 H     1.0000    0     1.008   -2.948240   -0.848661   -3.146622
  12 H     1.0000    0     1.008   -0.053294   -2.521916   -2.546636
  13 H     1.0000    0     1.008    0.116804    3.084089   -2.828331

--------------------------------
INTERNAL COORDINATES (ANGSTROEM)
--------------------------------
 C      0   0   0     0.000000000000     0.00000000     0.00000000
 C      1   0   0     1.544231555262     0.00000000     0.00000000
 C      2   1   0     1.538106427303    97.17664673     0.00000000
 C      3   2   1     1.532180206532   102.62100041    47.32910236
 C      4   3   2     1.532200432330    78.00653820   290.25616708
 O      3   2   1     1.437918639824   102.40426707   316.06667649
 H      1   2   3     1.087469959207   112.53891369   116.74642946
 H      1   2   3     1.087800475757   113.57514276   241.87716640
 H      2   1   3     1.087739923708   113.57041800   118.06642435
 H      2   1   3     1.087636015642   112.55874058   243.18680015
 H      3   2   1     1.085815070935   118.82086278   187.77854312
 H      4   3   2     1.085712153182   112.60197952   180.58256564
 H      4   3   2     1.086896667949   119.07768793    47.01666759
 H      5   4   3     1.085885575274   123.60115471   207.70162864

---------------------------
INTERNAL COORDINATES (A.U.)
---------------------------
 C      0   0   0     0.000000000000     0.00000000     0.00000000
 C      1   0   0     2.918174726805     0.00000000     0.00000000
 C      2   1   0     2.906599912428    97.17664673     0.00000000
 C      3   2   1     2.895400978161   102.62100041    47.32910236
 C      4   3   2     2.895439199379    78.00653820   290.25616708
 O      3   2   1     2.717272432127   102.40426707   316.06667649
 H      1   2   3     2.055020401767   112.53891369   116.74642946
 H      1   2   3     2.055644987529   113.57514276   241.87716640
 H      2   1   3     2.055530560740   113.57041800   118.06642435
 H      2   1   3     2.055334202952   112.55874058   243.18680015
 H      3   2   1     2.051893116151   118.82086278   187.77854312
 H      4   3   2     2.051698629783   112.60197952   180.58256564
 H      4   3   2     2.053937038295   119.07768793    47.01666759
 H      5   4   3     2.052026350043   123.60115471   207.70162864

---------------------
BASIS SET INFORMATION
---------------------
There are 3 groups of distinct atoms

 Group   1 Type C   : 7s4p1d contracted to 3s2p1d pattern {511/31/1}
 Group   2 Type O   : 7s4p1d contracted to 3s2p1d pattern {511/31/1}
 Group   3 Type H   : 4s1p contracted to 2s1p pattern {31/1}

Atom   0C    basis set group =>   1
Atom   1C    basis set group =>   1
Atom   2C    basis set group =>   1
Atom   3C    basis set group =>   1
Atom   4C    basis set group =>   1
Atom   5O    basis set group =>   2
Atom   6H    basis set group =>   3
Atom   7H    basis set group =>   3
Atom   8H    basis set group =>   3
Atom   9H    basis set group =>   3
Atom  10H    basis set group =>   3
Atom  11H    basis set group =>   3
Atom  12H    basis set group =>   3
Atom  13H    basis set group =>   3
---------------------------------
AUXILIARY/J BASIS SET INFORMATION
---------------------------------
There are 3 groups of distinct atoms

 Group   1 Type C   : 12s5p4d2f1g contracted to 6s4p3d1f1g pattern {711111/2111/211/2/1}
 Group   2 Type O   : 12s5p4d2f1g contracted to 6s4p3d1f1g pattern {711111/2111/211/2/1}
 Group   3 Type H   : 5s2p1d contracted to 3s1p1d pattern {311/2/1}

Atom   0C    basis set group =>   1
Atom   1C    basis set group =>   1
Atom   2C    basis set group =>   1
Atom   3C    basis set group =>   1
Atom   4C    basis set group =>   1
Atom   5O    basis set group =>   2
Atom   6H    basis set group =>   3
Atom   7H    basis set group =>   3
Atom   8H    basis set group =>   3
Atom   9H    basis set group =>   3
Atom  10H    basis set group =>   3
Atom  11H    basis set group =>   3
Atom  12H    basis set group =>   3
Atom  13H    basis set group =>   3


           ************************************************************
           *        Program running with 8 parallel MPI-processes     *
           *              working on a common directory               *
           ************************************************************
------------------------------------------------------------------------------
                           ORCA GTO INTEGRAL CALCULATION
                           -- RI-GTO INTEGRALS CHOSEN --
------------------------------------------------------------------------------
------------------------------------------------------------------------------
                   ___                                                        
                  /   \      - P O W E R E D   B Y -                         
                 /     \                                                     
                 |  |  |   _    _      __       _____    __    __             
                 |  |  |  | |  | |    /  \     |  _  \  |  |  /  |          
                  \  \/   | |  | |   /    \    | | | |  |  | /  /          
                 / \  \   | |__| |  /  /\  \   | |_| |  |  |/  /          
                |  |  |   |  __  | /  /__\  \  |    /   |      \           
                |  |  |   | |  | | |   __   |  |    \   |  |\   \          
                \     /   | |  | | |  |  |  |  | |\  \  |  | \   \       
                 \___/    |_|  |_| |__|  |__|  |_| \__\ |__|  \__/        
                                                                              
                      - O R C A' S   B I G   F R I E N D -                    
                                      &                                       
                       - I N T E G R A L  F E E D E R -                       
                                                                              
 v1 FN, 2020, v2 2021                                                         
------------------------------------------------------------------------------


Reading SHARK input file p0_C5H8O_conf0_opt_orca.SHARKINP.tmp ... ok
----------------------
SHARK INTEGRAL PACKAGE
----------------------

Number of atoms                             ...     14
Number of basis functions                   ...    124
Number of shells                            ...     60
Maximum angular momentum                    ...      2
Integral batch strategy                     ... SHARK/LIBINT Hybrid
RI-J (if used) integral strategy            ... SPLIT-RIJ (Revised 2003 algorithm where possible)
Printlevel                                  ...      1
Contraction scheme used                     ... SEGMENTED contraction
Coulomb Range Separation                    ... NOT USED
Exchange Range Separation                   ... NOT USED
Finite Nucleus Model                        ... NOT USED
Auxiliary Coulomb fitting basis             ... AVAILABLE
   # of basis functions in Aux-J            ...    382
   # of shells in Aux-J                     ...    130
   Maximum angular momentum in Aux-J        ...      4
Auxiliary J/K fitting basis                 ... NOT available
Auxiliary Correlation fitting basis         ... NOT available
Auxiliary 'external' fitting basis          ... NOT available
Integral threshold                          ...     2.500000e-11
Primitive cut-off                           ...     2.500000e-12
Primitive pair pre-selection threshold      ...     2.500000e-12

Calculating pre-screening integrals         ... done (  0.0 sec) Dimension = 60
Organizing shell pair data                  ... done (  0.0 sec)
Shell pair information
Total number of shell pairs                 ...      1830
Shell pairs after pre-screening             ...      1823
Total number of primitive shell pairs       ...      6430
Primitive shell pairs kept                  ...      5147
          la=0 lb=0:    588 shell pairs
          la=1 lb=0:    680 shell pairs
          la=1 lb=1:    210 shell pairs
          la=2 lb=0:    204 shell pairs
          la=2 lb=1:    120 shell pairs
          la=2 lb=2:     21 shell pairs

Calculating one electron integrals          ... done (  0.0 sec)
Calculating RI/J V-Matrix + Cholesky decomp.... done (  0.0 sec)
Calculating Nuclear repulsion               ... done (  0.0 sec) ENN=    254.418484648466 Eh

SHARK setup successfully completed in   0.1 seconds

Maximum memory used throughout the entire GTOINT-calculation: 10.6 MB


           ************************************************************
           *        Program running with 8 parallel MPI-processes     *
           *              working on a common directory               *
           ************************************************************
-------------------------------------------------------------------------------
                                 ORCA SCF
-------------------------------------------------------------------------------

------------
SCF SETTINGS
------------
Hamiltonian:
 Density Functional     Method          .... DFT(GTOs)
 Exchange Functional    Exchange        .... PBE
   PBE kappa parameter   XKappa         ....  0.804000
   PBE mue parameter    XMuePBE         ....  0.219520
 Correlation Functional Correlation     .... PBE
   PBE beta parameter  CBetaPBE         ....  0.066725
 LDA part of GGA corr.  LDAOpt          .... PW91-LDA
 Gradients option       PostSCFGGA      .... off
 Hybrid DFT is turned on
   Fraction HF Exchange ScalHFX         ....  0.250000
   Scaling of DF-GGA-X  ScalDFX         ....  0.750000
   Scaling of DF-GGA-C  ScalDFC         ....  1.000000
   Scaling of DF-LDA-C  ScalLDAC        ....  1.000000
   Perturbative correction              ....  0.000000
   Density functional embedding theory  .... OFF
   NL short-range parameter             ....  6.900000
 RI-approximation to the Coulomb term is turned on
   Number of AuxJ basis functions       .... 382
   RIJ-COSX (HFX calculated with COS-X)).... on


General Settings:
 Integral files         IntName         .... p0_C5H8O_conf0_opt_orca
 Hartree-Fock type      HFTyp           .... RHF
 Total Charge           Charge          ....    0
 Multiplicity           Mult            ....    1
 Number of Electrons    NEL             ....   46
 Basis Dimension        Dim             ....  124
 Nuclear Repulsion      ENuc            ....    254.4184846485 Eh

Convergence Acceleration:
 DIIS                   CNVDIIS         .... on
   Start iteration      DIISMaxIt       ....    12
   Startup error        DIISStart       ....  0.200000
   # of expansion vecs  DIISMaxEq       ....     5
   Bias factor          DIISBfac        ....   1.050
   Max. coefficient     DIISMaxC        ....  10.000
 Trust-Rad. Augm. Hess. CNVTRAH         .... auto
   Auto Start mean grad. ratio tolernc. ....  1.125000
   Auto Start start iteration           ....    20
   Auto Start num. interpolation iter.  ....    10
   Max. Number of Micro iterations      ....    16
   Max. Number of Macro iterations      .... Maxiter - #DIIS iter
   Number of Davidson start vectors     ....     2
   Converg. threshold I  (grad. norm)   ....   1.000e-05
   Converg. threshold II (energy diff.) ....   1.000e-08
   Grad. Scal. Fac. for Micro threshold ....   0.100
   Minimum threshold for Micro iter.    ....   0.010
   NR start threshold (gradient norm)   ....   0.001
   Initial trust radius                 ....   0.400
   Minimum AH scaling param. (alpha)    ....   1.000
   Maximum AH scaling param. (alpha)    .... 1000.000
   Orbital update algorithm             .... Taylor
   White noise on init. David. guess    .... on
   Maximum white noise                  ....   0.010
   Quad. conv. algorithm                .... NR
 SOSCF                  CNVSOSCF        .... on
   Start iteration      SOSCFMaxIt      ....   150
   Startup grad/error   SOSCFStart      ....  0.003300
 Level Shifting         CNVShift        .... on
   Level shift para.    LevelShift      ....    0.2500
   Turn off err/grad.   ShiftErr        ....    0.0010
 Zerner damping         CNVZerner       .... off
 Static damping         CNVDamp         .... on
   Fraction old density DampFac         ....    0.7000
   Max. Damping (<1)    DampMax         ....    0.9800
   Min. Damping (>=0)   DampMin         ....    0.0000
   Turn off err/grad.   DampErr         ....    0.1000
 Fernandez-Rico         CNVRico         .... off

SCF Procedure:
 Maximum # iterations   MaxIter         ....   250
 SCF integral mode      SCFMode         .... Direct
   Integral package                     .... SHARK and LIBINT hybrid scheme
 Reset frequency        DirectResetFreq ....    20
 Integral Threshold     Thresh          ....  2.500e-11 Eh
 Primitive CutOff       TCut            ....  2.500e-12 Eh

Convergence Tolerance:
 Convergence Check Mode ConvCheckMode   .... Total+1el-Energy
 Convergence forced     ConvForced      .... 0
 Energy Change          TolE            ....  1.000e-08 Eh
 1-El. energy change                    ....  1.000e-05 Eh
 Orbital Gradient       TolG            ....  1.000e-05
 Orbital Rotation angle TolX            ....  1.000e-05
 DIIS Error             TolErr          ....  5.000e-07


Diagonalization of the overlap matrix:
Smallest eigenvalue                        ... 4.939e-04
Time for diagonalization                   ...    0.002 sec
Threshold for overlap eigenvalues          ... 1.000e-08
Number of eigenvalues below threshold      ... 0
Time for construction of square roots      ...    0.001 sec
Total time needed                          ...    0.004 sec

Time for model grid setup =    0.038 sec

------------------------------
INITIAL GUESS: MODEL POTENTIAL
------------------------------
Loading Hartree-Fock densities                     ... done
Calculating cut-offs                               ... done
Initializing the effective Hamiltonian             ... done
Setting up the integral package (SHARK)            ... done
Starting the Coulomb interaction                   ... done (   0.0 sec)
Reading the grid                                   ... done
Mapping shells                                     ... done
Starting the XC term evaluation                    ... done (   0.0 sec)
  promolecular density results
     # of electrons  =     45.994914575
     EX              =    -36.131462276
     EC              =     -1.541031415
     EX+EC           =    -37.672493691
Transforming the Hamiltonian                       ... done (   0.0 sec)
Diagonalizing the Hamiltonian                      ... done (   0.0 sec)
Back transforming the eigenvectors                 ... done (   0.0 sec)
Now organizing SCF variables                       ... done
                      ------------------
                      INITIAL GUESS DONE (   0.1 sec)
                      ------------------
-------------------
DFT GRID GENERATION
-------------------

General Integration Accuracy     IntAcc      ... 4.388
Radial Grid Type                 RadialGrid  ... OptM3 with GC (2021)
Angular Grid (max. ang.)         AngularGrid ... 4 (Lebedev-302)
Angular grid pruning method      GridPruning ... 4 (adaptive)
Weight generation scheme         WeightScheme... Becke
Basis function cutoff            BFCut       ... 1.0000e-11
Integration weight cutoff        WCut        ... 1.0000e-14
Angular grids for H and He will be reduced by one unit
Partially contracted basis set               ... off
Rotationally invariant grid construction     ... off

Total number of grid points                  ...    61695
Total number of batches                      ...      970
Average number of points per batch           ...       63
Average number of grid points per atom       ...     4407
Time for grid setup =    0.224 sec

--------------------
COSX GRID GENERATION
--------------------

GRIDX 1
-------
General Integration Accuracy     IntAcc      ... 3.816
Radial Grid Type                 RadialGrid  ... OptM3 with GC (2021)
Angular Grid (max. ang.)         AngularGrid ... 1 (Lebedev-50)
Angular grid pruning method      GridPruning ... 4 (adaptive)
Weight generation scheme         WeightScheme... Becke
Basis function cutoff            BFCut       ... 1.0000e-11
Integration weight cutoff        WCut        ... 1.0000e-14
Angular grids for H and He will be reduced by one unit
Partially contracted basis set               ... on
Rotationally invariant grid construction     ... off

Total number of grid points                  ...     7904
Total number of batches                      ...      130
Average number of points per batch           ...       60
Average number of grid points per atom       ...      565
UseSFitting                                  ... on

GRIDX 2
-------
General Integration Accuracy     IntAcc      ... 4.020
Radial Grid Type                 RadialGrid  ... OptM3 with GC (2021)
Angular Grid (max. ang.)         AngularGrid ... 2 (Lebedev-110)
Angular grid pruning method      GridPruning ... 4 (adaptive)
Weight generation scheme         WeightScheme... Becke
Basis function cutoff            BFCut       ... 1.0000e-11
Integration weight cutoff        WCut        ... 1.0000e-14
Angular grids for H and He will be reduced by one unit
Partially contracted basis set               ... on
Rotationally invariant grid construction     ... off

Total number of grid points                  ...    16853
Total number of batches                      ...      269
Average number of points per batch           ...       62
Average number of grid points per atom       ...     1204
UseSFitting                                  ... on

GRIDX 3
-------
General Integration Accuracy     IntAcc      ... 4.338
Radial Grid Type                 RadialGrid  ... OptM3 with GC (2021)
Angular Grid (max. ang.)         AngularGrid ... 3 (Lebedev-194)
Angular grid pruning method      GridPruning ... 4 (adaptive)
Weight generation scheme         WeightScheme... Becke
Basis function cutoff            BFCut       ... 1.0000e-11
Integration weight cutoff        WCut        ... 1.0000e-14
Angular grids for H and He will be reduced by one unit
Partially contracted basis set               ... on
Rotationally invariant grid construction     ... off

Total number of grid points                  ...    36891
Total number of batches                      ...      583
Average number of points per batch           ...       63
Average number of grid points per atom       ...     2635
UseSFitting                                  ... on

Time for X-Grid setup             =    0.168 sec

--------------
SCF ITERATIONS
--------------
ITER       Energy         Delta-E        Max-DP      RMS-DP      [F,P]     Damp
               ***  Starting incremental Fock matrix formation  ***
  0   -269.8788444513   0.000000000000 0.06458417  0.00259680  0.1503667 0.7000
  1   -269.9369556964  -0.058111245143 0.04115995  0.00179467  0.0672099 0.7000
                               ***Turning on DIIS***
  2   -269.9616053395  -0.024649643059 0.06317651  0.00311297  0.0286199 0.0000
  3   -269.9985113547  -0.036906015264 0.02851951  0.00130774  0.0349264 0.0000
  4   -270.0073523675  -0.008841012734 0.00421599  0.00027521  0.0052295 0.0000
  5   -270.0075923663  -0.000239998842 0.00270952  0.00011565  0.0036542 0.0000
                      *** Initiating the SOSCF procedure ***
                           *** Shutting down DIIS ***
                      *** Re-Reading the Fockian *** 
                      *** Removing any level shift *** 
ITER      Energy       Delta-E        Grad      Rot      Max-DP    RMS-DP
  6   -270.00761600  -0.0000236347  0.000215  0.000215  0.000803  0.000037
               *** Restarting incremental Fock matrix formation ***
  7   -270.00761585   0.0000001528  0.000077  0.000129  0.000324  0.000021
  8   -270.00761589  -0.0000000447  0.000126  0.000095  0.000206  0.000009
  9   -270.00761611  -0.0000002169  0.000015  0.000038  0.000082  0.000004
 10   -270.00761612  -0.0000000057  0.000010  0.000010  0.000034  0.000001
                  ***Gradient check signals convergence***
              ***Rediagonalizing the Fockian in SOSCF/NRSCF***

               *****************************************************
               *                     SUCCESS                       *
               *           SCF CONVERGED AFTER  11 CYCLES          *
               *****************************************************

Old exchange energy                            =     -9.252234929 Eh
New exchange energy                            =     -9.252243430 Eh
Exchange energy change after final integration =     -0.000008501 Eh
Total energy after final integration           =   -270.007624621 Eh
Final COS-X integration done in                =     0.572 sec

----------------
TOTAL SCF ENERGY
----------------

Total Energy       :         -270.00762462 Eh           -7347.28099 eV

Components:
Nuclear Repulsion  :          254.41848465 Eh            6923.07893 eV
Electronic Energy  :         -524.42610927 Eh          -14270.35992 eV
One Electron Energy:         -869.38471001 Eh          -23657.16067 eV
Two Electron Energy:          344.95860074 Eh            9386.80074 eV
Max COSX asymmetry :            0.00000482 Eh               0.00013 eV

Virial components:
Potential Energy   :         -537.58051272 Eh          -14628.30944 eV
Kinetic Energy     :          267.57288810 Eh            7281.02845 eV
Virial Ratio       :            2.00909934


DFT components:
N(Alpha)           :       22.999989064909 electrons
N(Beta)            :       22.999989064909 electrons
N(Total)           :       45.999978129819 electrons
E(X)               :      -27.641016126866 Eh       
E(C)               :       -1.548810793260 Eh       
E(XC)              :      -29.189826920125 Eh       
DFET-embed. en.    :        0.000000000000 Eh       

---------------
SCF CONVERGENCE
---------------

  Last Energy change         ...   -4.2493e-09  Tolerance :   1.0000e-08
  Last MAX-Density change    ...    3.1086e-15  Tolerance :   1.0000e-07
  Last RMS-Density change    ...    6.1861e-17  Tolerance :   5.0000e-09
  Last Orbital Gradient      ...    1.8828e-06  Tolerance :   1.0000e-05
  Last Orbital Rotation      ...    5.3300e-06  Tolerance :   1.0000e-05

             **** THE GBW FILE WAS UPDATED (p0_C5H8O_conf0_opt_orca.gbw) ****
             **** DENSITY p0_C5H8O_conf0_opt_orca.scfp WAS UPDATED ****
             **** ENERGY FILE WAS UPDATED (p0_C5H8O_conf0_opt_orca.en.tmp) ****
             **** THE GBW FILE WAS UPDATED (p0_C5H8O_conf0_opt_orca.gbw) ****
             **** DENSITY p0_C5H8O_conf0_opt_orca.scfp WAS UPDATED ****
----------------
ORBITAL ENERGIES
----------------

  NO   OCC          E(Eh)            E(eV) 
   0   2.0000     -19.200114      -522.4617 
   1   2.0000     -10.282487      -279.8007 
   2   2.0000     -10.282459      -279.7999 
   3   2.0000     -10.232302      -278.4351 
   4   2.0000     -10.228556      -278.3332 
   5   2.0000     -10.228442      -278.3301 
   6   2.0000      -1.085911       -29.5491 
   7   2.0000      -0.817058       -22.2333 
   8   2.0000      -0.731553       -19.9066 
   9   2.0000      -0.724035       -19.7020 
  10   2.0000      -0.586194       -15.9511 
  11   2.0000      -0.559180       -15.2160 
  12   2.0000      -0.543364       -14.7857 
  13   2.0000      -0.484773       -13.1914 
  14   2.0000      -0.475934       -12.9508 
  15   2.0000      -0.450082       -12.2474 
  16   2.0000      -0.385231       -10.4827 
  17   2.0000      -0.370164       -10.0727 
  18   2.0000      -0.364505        -9.9187 
  19   2.0000      -0.361129        -9.8268 
  20   2.0000      -0.334003        -9.0887 
  21   2.0000      -0.325300        -8.8519 
  22   2.0000      -0.260873        -7.0987 
  23   0.0000       0.072803         1.9811 
  24   0.0000       0.097834         2.6622 
  25   0.0000       0.106932         2.9098 
  26   0.0000       0.113403         3.0859 
  27   0.0000       0.124568         3.3897 
  28   0.0000       0.144134         3.9221 
  29   0.0000       0.149217         4.0604 
  30   0.0000       0.161231         4.3873 
  31   0.0000       0.170816         4.6481 
  32   0.0000       0.192031         5.2254 
  33   0.0000       0.201460         5.4820 
  34   0.0000       0.214348         5.8327 
  35   0.0000       0.236018         6.4224 
  36   0.0000       0.272481         7.4146 
  37   0.0000       0.315931         8.5969 
  38   0.0000       0.431542        11.7428 
  39   0.0000       0.462118        12.5749 
  40   0.0000       0.473114        12.8741 
  41   0.0000       0.487670        13.2702 
  42   0.0000       0.500340        13.6149 
  43   0.0000       0.519827        14.1452 
  44   0.0000       0.583803        15.8861 
  45   0.0000       0.585734        15.9386 
  46   0.0000       0.598622        16.2893 
  47   0.0000       0.617011        16.7897 
  48   0.0000       0.630173        17.1479 
  49   0.0000       0.650800        17.7092 
  50   0.0000       0.652645        17.7594 
  51   0.0000       0.664976        18.0949 
  52   0.0000       0.678505        18.4631 
  53   0.0000       0.686116        18.6702 
  54   0.0000       0.698626        19.0106 
  55   0.0000       0.710880        19.3440 
  56   0.0000       0.721549        19.6343 
  57   0.0000       0.734353        19.9828 
  58   0.0000       0.754951        20.5433 
  59   0.0000       0.782990        21.3062 
  60   0.0000       0.792674        21.5698 
  61   0.0000       0.851914        23.1818 
  62   0.0000       0.939547        25.5664 
  63   0.0000       1.005171        27.3521 
  64   0.0000       1.068603        29.0782 
  65   0.0000       1.075078        29.2544 
  66   0.0000       1.154661        31.4199 
  67   0.0000       1.172870        31.9154 
  68   0.0000       1.277649        34.7666 
  69   0.0000       1.333127        36.2762 
  70   0.0000       1.357353        36.9354 
  71   0.0000       1.403684        38.1962 
  72   0.0000       1.469893        39.9978 
  73   0.0000       1.501919        40.8693 
  74   0.0000       1.567813        42.6624 
  75   0.0000       1.580226        43.0001 
  76   0.0000       1.609911        43.8079 
  77   0.0000       1.623675        44.1824 
  78   0.0000       1.647495        44.8306 
  79   0.0000       1.689486        45.9732 
  80   0.0000       1.727705        47.0132 
  81   0.0000       1.738255        47.3003 
  82   0.0000       1.756965        47.8094 
  83   0.0000       1.781373        48.4736 
  84   0.0000       1.802405        49.0459 
  85   0.0000       1.819901        49.5220 
  86   0.0000       1.835252        49.9397 
  87   0.0000       1.876561        51.0638 
  88   0.0000       1.903581        51.7991 
  89   0.0000       1.908601        51.9357 
  90   0.0000       1.958753        53.3004 
  91   0.0000       1.969378        53.5895 
  92   0.0000       2.008011        54.6408 
  93   0.0000       2.009257        54.6747 
  94   0.0000       2.042991        55.5926 
  95   0.0000       2.083309        56.6897 
  96   0.0000       2.091526        56.9133 
  97   0.0000       2.171338        59.0851 
  98   0.0000       2.247432        61.1557 
  99   0.0000       2.266365        61.6709 
 100   0.0000       2.269814        61.7648 
 101   0.0000       2.291249        62.3480 
 102   0.0000       2.317981        63.0755 
 103   0.0000       2.389838        65.0308 
 104   0.0000       2.419328        65.8333 
 105   0.0000       2.448453        66.6258 
 106   0.0000       2.614134        71.1342 
 107   0.0000       2.621450        71.3333 
 108   0.0000       2.628689        71.5303 
 109   0.0000       2.704100        73.5823 
 110   0.0000       2.763929        75.2103 
 111   0.0000       2.854873        77.6850 
 112   0.0000       2.863073        77.9082 
 113   0.0000       2.879654        78.3594 
 114   0.0000       2.889062        78.6154 
 115   0.0000       2.945957        80.1636 
 116   0.0000       2.964907        80.6792 
 117   0.0000       3.034614        82.5760 
 118   0.0000       3.091807        84.1324 
 119   0.0000       3.111547        84.6695 
 120   0.0000       3.130227        85.1778 
 121   0.0000       3.133186        85.2583 
 122   0.0000       3.281481        89.2936 
 123   0.0000       3.521755        95.8318 

                    ********************************
                    * MULLIKEN POPULATION ANALYSIS *
                    ********************************

-----------------------
MULLIKEN ATOMIC CHARGES
-----------------------
   0 C :    0.052189
   1 C :    0.050617
   2 C :   -0.010406
   3 C :    0.016150
   4 C :   -0.011421
   5 O :   -0.387834
   6 H :    0.042958
   7 H :    0.032794
   8 H :    0.032950
   9 H :    0.042973
  10 H :    0.025737
  11 H :    0.051349
  12 H :    0.036014
  13 H :    0.025930
Sum of atomic charges:   -0.0000000

--------------------------------
MULLIKEN REDUCED ORBITAL CHARGES
--------------------------------
  0 C s       :     2.930012  s :     2.930012
      pz      :     0.977424  p :     2.983753
      px      :     0.986929
      py      :     1.019400
      dz2     :     0.003409  d :     0.034046
      dxz     :     0.009820
      dyz     :     0.007479
      dx2y2   :     0.005329
      dxy     :     0.008009
  1 C s       :     2.931369  s :     2.931369
      pz      :     1.036156  p :     2.983978
      px      :     0.934297
      py      :     1.013524
      dz2     :     0.009197  d :     0.034037
      dxz     :     0.006197
      dyz     :     0.005657
      dx2y2   :     0.007710
      dxy     :     0.005276
  2 C s       :     3.283598  s :     3.283598
      pz      :     0.943955  p :     2.652195
      px      :     1.009655
      py      :     0.698585
      dz2     :     0.014007  d :     0.074612
      dxz     :     0.012592
      dyz     :     0.014202
      dx2y2   :     0.019238
      dxy     :     0.014572
  3 C s       :     3.070986  s :     3.070986
      pz      :     0.939993  p :     2.877827
      px      :     0.991245
      py      :     0.946589
      dz2     :     0.008912  d :     0.035036
      dxz     :     0.007587
      dyz     :     0.004796
      dx2y2   :     0.005968
      dxy     :     0.007772
  4 C s       :     3.284003  s :     3.284003
      pz      :     0.861529  p :     2.652824
      px      :     0.839980
      py      :     0.951316
      dz2     :     0.010980  d :     0.074594
      dxz     :     0.019827
      dyz     :     0.015145
      dx2y2   :     0.016326
      dxy     :     0.012316
  5 O s       :     3.826635  s :     3.826635
      pz      :     1.585129  p :     4.542673
      px      :     1.576817
      py      :     1.380728
      dz2     :     0.002784  d :     0.018526
      dxz     :     0.003696
      dyz     :     0.003163
      dx2y2   :     0.005848
      dxy     :     0.003036
  6 H s       :     0.933991  s :     0.933991
      pz      :     0.006482  p :     0.023051
      px      :     0.005462
      py      :     0.011108
  7 H s       :     0.944055  s :     0.944055
      pz      :     0.006917  p :     0.023151
      px      :     0.009860
      py      :     0.006374
  8 H s       :     0.943898  s :     0.943898
      pz      :     0.004266  p :     0.023153
      px      :     0.005567
      py      :     0.013320
  9 H s       :     0.933985  s :     0.933985
      pz      :     0.013365  p :     0.023042
      px      :     0.004116
      py      :     0.005561
 10 H s       :     0.952202  s :     0.952202
      pz      :     0.006170  p :     0.022062
      px      :     0.011052
      py      :     0.004839
 11 H s       :     0.925154  s :     0.925154
      pz      :     0.007511  p :     0.023497
      px      :     0.011751
      py      :     0.004235
 12 H s       :     0.941020  s :     0.941020
      pz      :     0.004717  p :     0.022966
      px      :     0.008077
      py      :     0.010172
 13 H s       :     0.952015  s :     0.952015
      pz      :     0.009189  p :     0.022055
      px      :     0.003325
      py      :     0.009541


                     *******************************
                     * LOEWDIN POPULATION ANALYSIS *
                     *******************************

----------------------
LOEWDIN ATOMIC CHARGES
----------------------
   0 C :   -0.046242
   1 C :   -0.046305
   2 C :    0.078611
   3 C :   -0.045677
   4 C :    0.078626
   5 O :   -0.196671
   6 H :    0.027990
   7 H :    0.024506
   8 H :    0.024503
   9 H :    0.027989
  10 H :    0.012529
  11 H :    0.030296
  12 H :    0.017265
  13 H :    0.012579

-------------------------------
LOEWDIN REDUCED ORBITAL CHARGES
-------------------------------
  0 C s       :     2.847398  s :     2.847398
      pz      :     1.036305  p :     3.111965
      px      :     1.023416
      py      :     1.052244
      dz2     :     0.006448  d :     0.086878
      dxz     :     0.027528
      dyz     :     0.019551
      dx2y2   :     0.012812
      dxy     :     0.020538
  1 C s       :     2.847521  s :     2.847521
      pz      :     1.042761  p :     3.111934
      px      :     1.019674
      py      :     1.049499
      dz2     :     0.022944  d :     0.086851
      dxz     :     0.016470
      dyz     :     0.013744
      dx2y2   :     0.020224
      dxy     :     0.013469
  2 C s       :     2.867337  s :     2.867337
      pz      :     1.021185  p :     2.890705
      px      :     1.046109
      py      :     0.823411
      dz2     :     0.032492  d :     0.163347
      dxz     :     0.030527
      dyz     :     0.028048
      dx2y2   :     0.042767
      dxy     :     0.029514
  3 C s       :     2.858672  s :     2.858672
      pz      :     1.017630  p :     3.095720
      px      :     1.053458
      py      :     1.024631
      dz2     :     0.024686  d :     0.091285
      dxz     :     0.019482
      dyz     :     0.011153
      dx2y2   :     0.014689
      dxy     :     0.021276
  4 C s       :     2.867384  s :     2.867384
      pz      :     0.953890  p :     2.890698
      px      :     0.926099
      py      :     1.010709
      dz2     :     0.020793  d :     0.163292
      dxz     :     0.044832
      dyz     :     0.034530
      dx2y2   :     0.037710
      dxy     :     0.025427
  5 O s       :     3.522682  s :     3.522682
      pz      :     1.600606  p :     4.642988
      px      :     1.604591
      py      :     1.437791
      dz2     :     0.004713  d :     0.031001
      dxz     :     0.006620
      dyz     :     0.004910
      dx2y2   :     0.010352
      dxy     :     0.004407
  6 H s       :     0.901978  s :     0.901978
      pz      :     0.020837  p :     0.070032
      px      :     0.017065
      py      :     0.032131
  7 H s       :     0.905487  s :     0.905487
      pz      :     0.020964  p :     0.070007
      px      :     0.029390
      py      :     0.019653
  8 H s       :     0.905471  s :     0.905471
      pz      :     0.013785  p :     0.070026
      px      :     0.018261
      py      :     0.037980
  9 H s       :     0.902008  s :     0.902008
      pz      :     0.038809  p :     0.070004
      px      :     0.014373
      py      :     0.016821
 10 H s       :     0.918330  s :     0.918330
      pz      :     0.020358  p :     0.069141
      px      :     0.033543
      py      :     0.015240
 11 H s       :     0.898673  s :     0.898673
      pz      :     0.023450  p :     0.071030
      px      :     0.033976
      py      :     0.013604
 12 H s       :     0.912967  s :     0.912967
      pz      :     0.015804  p :     0.069768
      px      :     0.023345
      py      :     0.030619
 13 H s       :     0.918287  s :     0.918287
      pz      :     0.027672  p :     0.069133
      px      :     0.012116
      py      :     0.029346


                      *****************************
                      * MAYER POPULATION ANALYSIS *
                      *****************************

  NA   - Mulliken gross atomic population
  ZA   - Total nuclear charge
  QA   - Mulliken gross atomic charge
  VA   - Mayer's total valence
  BVA  - Mayer's bonded valence
  FA   - Mayer's free valence

  ATOM       NA         ZA         QA         VA         BVA        FA
  0 C      5.9478     6.0000     0.0522     3.9754     3.9754     0.0000
  1 C      5.9494     6.0000     0.0506     3.9759     3.9759    -0.0000
  2 C      6.0104     6.0000    -0.0104     3.9891     3.9891    -0.0000
  3 C      5.9838     6.0000     0.0162     3.8702     3.8702    -0.0000
  4 C      6.0114     6.0000    -0.0114     3.9896     3.9896     0.0000
  5 O      8.3878     8.0000    -0.3878     1.9627     1.9627    -0.0000
  6 H      0.9570     1.0000     0.0430     0.9850     0.9850     0.0000
  7 H      0.9672     1.0000     0.0328     0.9788     0.9788     0.0000
  8 H      0.9671     1.0000     0.0329     0.9787     0.9787    -0.0000
  9 H      0.9570     1.0000     0.0430     0.9849     0.9849    -0.0000
 10 H      0.9743     1.0000     0.0257     0.9914     0.9914     0.0000
 11 H      0.9487     1.0000     0.0513     0.9881     0.9881     0.0000
 12 H      0.9640     1.0000     0.0360     0.9811     0.9811    -0.0000
 13 H      0.9741     1.0000     0.0259     0.9914     0.9914     0.0000

  Mayer bond orders larger than 0.100000
B(  0-C ,  1-C ) :   1.0876 B(  0-C ,  4-C ) :   1.0332 B(  0-C ,  6-H ) :   0.9293 
B(  0-C ,  7-H ) :   0.9307 B(  1-C ,  2-C ) :   1.0331 B(  1-C ,  8-H ) :   0.9308 
B(  1-C ,  9-H ) :   0.9294 B(  2-C ,  3-C ) :   1.0055 B(  2-C ,  5-O ) :   0.9416 
B(  2-C , 10-H ) :   0.9742 B(  3-C ,  4-C ) :   1.0055 B(  3-C , 11-H ) :   0.9365 
B(  3-C , 12-H ) :   0.9555 B(  4-C ,  5-O ) :   0.9414 B(  4-C , 13-H ) :   0.9742 



------------------
HIRSHFELD ANALYSIS
------------------

Total integrated alpha density =     22.999989065
Total integrated beta density  =     22.999989065

  ATOM     CHARGE      SPIN    
   0 C   -0.050804    0.000000
   1 C   -0.050816    0.000000
   2 C    0.068713    0.000000
   3 C   -0.056928    0.000000
   4 C    0.068720    0.000000
   5 O   -0.214530    0.000000
   6 H    0.027172    0.000000
   7 H    0.024434    0.000000
   8 H    0.024424    0.000000
   9 H    0.027160    0.000000
  10 H    0.037922    0.000000
  11 H    0.031063    0.000000
  12 H    0.025551    0.000000
  13 H    0.037942    0.000000

  TOTAL   0.000022    0.000000

-------
TIMINGS
-------

Total SCF time: 0 days 0 hours 0 min 5 sec 

Total time                  ....       5.251 sec
Sum of individual times     ....       5.134 sec  ( 97.8%)

Fock matrix formation       ....       4.521 sec  ( 86.1%)
  Split-RI-J                ....       0.434 sec  (  9.6% of F)
  Chain of spheres X        ....       3.237 sec  ( 71.6% of F)
  XC integration            ....       0.827 sec  ( 18.3% of F)
    Basis function eval.    ....       0.304 sec  ( 36.8% of XC)
    Density eval.           ....       0.159 sec  ( 19.3% of XC)
    XC-Functional eval.     ....       0.078 sec  (  9.4% of XC)
    XC-Potential eval.      ....       0.208 sec  ( 25.1% of XC)
Diagonalization             ....       0.024 sec  (  0.5%)
Density matrix formation    ....       0.002 sec  (  0.0%)
Population analysis         ....       0.086 sec  (  1.6%)
Initial guess               ....       0.035 sec  (  0.7%)
Orbital Transformation      ....       0.000 sec  (  0.0%)
Orbital Orthonormalization  ....       0.000 sec  (  0.0%)
DIIS solution               ....       0.020 sec  (  0.4%)
SOSCF solution              ....       0.015 sec  (  0.3%)
Grid generation             ....       0.430 sec  (  8.2%)

Maximum memory used throughout the entire SCF-calculation: 49.3 MB


-------------------------------------------------------------------------------
                          DFT DISPERSION CORRECTION                            
                                                                               
                              DFTD3 V3.1  Rev 1                                
                          USING Becke-Johnson damping                          
-------------------------------------------------------------------------------
The PBE0 functional is recognized
Active option DFTDOPT                   ...         4   

molecular C6(AA) [au] = 1481.499718 


            DFT-D V3
 parameters
 s6 scaling factor         :     1.0000 
 a1 scaling factor         :     0.4145 
 s8 scaling factor         :     1.2177 
 a2 scaling factor         :     4.8593 
 ad hoc parameters k1-k3   :    16.0000     1.3333    -4.0000 

 Edisp/kcal,au: -6.064217391584  -0.009663944523 
 E6   /kcal   :  -3.890485844 
 E8   /kcal   :  -2.173731547 
 % E8         :  35.845211461 

-------------------------   ----------------
Dispersion correction           -0.009663945
-------------------------   ----------------


-------------------------   --------------------
FINAL SINGLE POINT ENERGY      -270.017288565036
-------------------------   --------------------



           ************************************************************
           *        Program running with 8 parallel MPI-processes     *
           *              working on a common directory               *
           ************************************************************
------------------------------------------------------------------------------
                         ORCA SCF GRADIENT CALCULATION
------------------------------------------------------------------------------

 ... reading COSX grid (gridx3)
Gradient of the Kohn-Sham DFT energy:
Kohn-Sham wavefunction type      ... RKS
Hartree-Fock exchange scaling    ...    0.250
Number of operators              ...    1
Number of atoms                  ...   14
Basis set dimensions             ...  124
Integral neglect threshold       ... 2.5e-11
Integral primitive cutoff        ... 2.5e-12
SHARK Integral package           ... ON

Nuc. rep. gradient       (SHARK) ... done (  0.0 sec)
HCore & Overlap gradient (SHARK) ... done (  0.0 sec)
RI-J gradient            (SHARK) ... done (  0.1 sec)
COSX-gradient                    ... done (  0.6 sec)
Exchange-correlation gradient    ... done
Dispersion correction            ... done

------------------
CARTESIAN GRADIENT
------------------

   1   C   :    0.007315496    0.000393568    0.000790530
   2   C   :    0.004231888   -0.003781272    0.004753960
   3   C   :   -0.010035087   -0.000817994    0.004170331
   4   C   :    0.000557934   -0.003265617   -0.002814949
   5   C   :   -0.002159632    0.008782473   -0.005682139
   6   O   :    0.004470577   -0.005911866   -0.002482435
   7   H   :   -0.003518213   -0.006328576   -0.002830298
   8   H   :   -0.007109855    0.002642573    0.003602472
   9   H   :   -0.003201003    0.007695002   -0.001456747
  10   H   :    0.000201813   -0.001596162   -0.007495512
  11   H   :    0.007414530    0.002805765   -0.003940354
  12   H   :    0.007198340   -0.001375627    0.004232166
  13   H   :   -0.005233312    0.007585795    0.003434052
  14   H   :   -0.000139713   -0.006773996    0.005622783

Difference to translation invariance:
           :   -0.0000062353    0.0000540672   -0.0000961380

Difference to rotation invariance:
           :   -0.0001532830   -0.0000857004   -0.0002542799

Norm of the cartesian gradient     ...    0.0317410038
RMS gradient                       ...    0.0048977432
MAX gradient                       ...    0.0100350871

-------
TIMINGS
-------

Total SCF gradient time            ...        1.297 sec

One electron gradient       ....       0.015 sec  (  1.2%)
RI-J Coulomb gradient       ....       0.113 sec  (  8.7%)
COSX gradient               ....       0.645 sec  ( 49.7%)
XC gradient                 ....       0.342 sec  ( 26.4%)

Maximum memory used throughout the entire SCFGRAD-calculation: 38.0 MB
------------------------------------------------------------------------------
                         ORCA GEOMETRY RELAXATION STEP
------------------------------------------------------------------------------

Reading the OPT-File                    .... done
Getting information on internals        .... done
Copying old internal coords+grads       .... done
Making the new internal coordinates     .... (new redundants).... done
Validating the new internal coordinates .... (new redundants).... done
Calculating the B-matrix                .... done
Calculating the G,G- and P matrices     .... done
Transforming gradient to internals      .... done
Projecting the internal gradient        .... done
Number of atoms                         ....  14
Number of internal coordinates          .... 130
Current Energy                          ....  -270.017288565 Eh
Current gradient norm                   ....     0.031741004 Eh/bohr
Maximum allowed component of the step   ....  0.300
Current trust radius                    ....  0.300
Evaluating the initial hessian          ....  (Almloef) done
Projecting the Hessian                  .... done
Forming the augmented Hessian           .... done
Diagonalizing the augmented Hessian     .... done
Last element of RFO vector              ....  0.995747476
Lowest eigenvalues of augmented Hessian:
 -0.001960029  0.012687952  0.015113431  0.019469214  0.037571026
Length of the computed step             ....  0.092518151
The final length of the internal step   ....  0.092518151
Converting the step to cartesian space:
 Initial RMS(Int)=    0.0081143786
Transforming coordinates:
 Iter   0:  RMS(Cart)=    0.0170979399 RMS(Int)=    0.0081004412
 Iter   1:  RMS(Cart)=    0.0001019480 RMS(Int)=    0.0000672353
 Iter   2:  RMS(Cart)=    0.0000011948 RMS(Int)=    0.0000008521
 Iter   3:  RMS(Cart)=    0.0000000119 RMS(Int)=    0.0000000094
done
Storing new coordinates                 .... done

                                .--------------------.
          ----------------------|Geometry convergence|-------------------------
          Item                value                   Tolerance       Converged
          ---------------------------------------------------------------------
          RMS gradient        0.0022429368            0.0005000000      NO
          MAX gradient        0.0097900644            0.0020000000      NO
          RMS step            0.0081143786            0.0070000000      NO
          MAX step            0.0267350162            0.0100000000      NO
          ........................................................
          Max(Bonds)      0.0141      Max(Angles)    0.74
          Max(Dihed)        0.86      Max(Improp)    0.00
          ---------------------------------------------------------------------

The optimization has not yet converged - more geometry cycles are needed


    ---------------------------------------------------------------------------
                         Redundant Internal Coordinates
                            (Angstroem and degrees)

        Definition                    Value    dE/dq     Step     New-Value
    ----------------------------------------------------------------------------
     1. B(C   1,C   0)                1.5442 -0.003810  0.0047    1.5489   
     2. B(C   2,C   1)                1.5381 -0.001323  0.0018    1.5399   
     3. B(C   3,C   2)                1.5322 -0.002383  0.0035    1.5357   
     4. B(C   4,C   0)                1.5379 -0.001373  0.0019    1.5398   
     5. B(C   4,C   2)                1.9286 -0.000765 -0.0004    1.9282   
     6. B(C   4,C   3)                1.5322 -0.002423  0.0036    1.5358   
     7. B(O   5,C   2)                1.4379 -0.002680  0.0040    1.4419   
     8. B(O   5,C   4)                1.4381 -0.002685  0.0040    1.4421   
     9. B(H   6,C   0)                1.0875 -0.007696  0.0111    1.0986   
    10. B(H   7,C   0)                1.0878 -0.008249  0.0120    1.0998   
    11. B(H   8,C   1)                1.0877 -0.008293  0.0120    1.0998   
    12. B(H   9,C   1)                1.0876 -0.007598  0.0110    1.0986   
    13. B(H  10,C   2)                1.0858 -0.008789  0.0127    1.0985   
    14. B(H  11,C   3)                1.0857 -0.008396  0.0121    1.0978   
    15. B(H  12,C   3)                1.0869 -0.009790  0.0141    1.1010   
    16. B(H  13,C   4)                1.0859 -0.008753  0.0126    1.0985   
    17. A(C   4,C   0,H   7)          112.21 -0.000764    0.25    112.46   
    18. A(C   1,C   0,H   7)          113.58 -0.000249    0.17    113.75   
    19. A(C   1,C   0,C   4)           97.18  0.000599   -0.11     97.07   
    20. A(H   6,C   0,H   7)          109.50  0.000760   -0.32    109.18   
    21. A(C   1,C   0,H   6)          112.54 -0.000567    0.13    112.67   
    22. A(C   4,C   0,H   6)          111.42  0.000138   -0.09    111.33   
    23. A(C   2,C   1,H   9)          111.43  0.000128   -0.08    111.35   
    24. A(C   0,C   1,H   9)          112.56 -0.000549    0.13    112.68   
    25. A(C   0,C   1,H   8)          113.57 -0.000240    0.17    113.75   
    26. A(C   0,C   1,C   2)           97.18  0.000574   -0.10     97.07   
    27. A(H   8,C   1,H   9)          109.48  0.000747   -0.32    109.17   
    28. A(C   2,C   1,H   8)          112.20 -0.000744    0.25    112.45   
    29. A(O   5,C   2,H  10)          115.25  0.000957   -0.35    114.91   
    30. A(C   3,C   2,H  10)          123.63  0.000740   -0.16    123.48   
    31. A(C   1,C   2,H  10)          118.82  0.000306   -0.12    118.70   
    32. A(C   4,C   2,O   5)           47.89 -0.000704    0.16     48.05   
    33. A(C   1,C   2,C   3)          102.62 -0.001246    0.74    103.36   
    34. A(C   3,C   2,O   5)           88.51 -0.000834    0.01     88.52   
    35. A(C   1,C   2,O   5)          102.40 -0.000344   -0.10    102.31   
    36. A(C   3,C   2,C   4)           51.00 -0.000510    0.12     51.11   
    37. A(C   4,C   2,H  10)          157.16  0.000368   -0.11    157.06   
    38. A(C   1,C   2,C   4)           82.82 -0.000590    0.11     82.92   
    39. A(C   2,C   3,H  11)          112.60 -0.000072   -0.17    112.44   
    40. A(C   2,C   3,C   4)           78.01  0.001004   -0.23     77.77   
    41. A(C   4,C   3,H  12)          119.07 -0.000459    0.21    119.28   
    42. A(C   2,C   3,H  12)          119.08 -0.000450    0.21    119.28   
    43. A(C   4,C   3,H  11)          112.57 -0.000074   -0.16    112.41   
    44. A(H  11,C   3,H  12)          111.67  0.000197    0.05    111.72   
    45. A(C   3,C   4,O   5)           88.51 -0.000818    0.01     88.51   
    46. A(C   2,C   4,O   5)           47.88 -0.000701    0.15     48.04   
    47. A(C   0,C   4,O   5)          102.38 -0.000348   -0.07    102.31   
    48. A(C   0,C   4,C   2)           82.83 -0.000583    0.10     82.93   
    49. A(C   3,C   4,H  13)          123.60  0.000716   -0.15    123.46   
    50. A(C   2,C   4,H  13)          157.13  0.000343   -0.09    157.03   
    51. A(C   0,C   4,H  13)          118.85  0.000319   -0.12    118.73   
    52. A(C   2,C   4,C   3)           51.00 -0.000493    0.12     51.11   
    53. A(C   0,C   4,C   3)          102.65 -0.001224    0.71    103.36   
    54. A(O   5,C   4,H  13)          115.25  0.000935   -0.34    114.91   
    55. A(C   2,O   5,C   4)           84.22  0.001405   -0.31     83.91   
    56. D(H   9,C   1,C   0,H   6)     -0.07 -0.000002    0.05     -0.02   
    57. D(H   9,C   1,C   0,H   7)    125.06  0.000362   -0.14    124.93   
    58. D(C   2,C   1,C   0,H   6)    116.75  0.000254   -0.06    116.69   
    59. D(C   2,C   1,C   0,C   4)     -0.05 -0.000021    0.05      0.01   
    60. D(H   8,C   1,C   0,H   6)   -125.19 -0.000371    0.24   -124.95   
    61. D(H   8,C   1,C   0,H   7)     -0.06 -0.000007    0.05     -0.01   
    62. D(C   2,C   1,C   0,H   7)   -118.12  0.000618   -0.24   -118.37   
    63. D(H   9,C   1,C   0,C   4)   -116.86 -0.000278    0.16   -116.70   
    64. D(H   8,C   1,C   0,C   4)    118.02 -0.000646    0.35    118.37   
    65. D(C   4,C   2,C   1,H   9)    117.73 -0.000267    0.02    117.75   
    66. D(H  10,C   2,C   1,H   9)    -54.52 -0.000574    0.39    -54.13   
    67. D(C   3,C   2,C   1,H   8)    -71.80 -0.000077   -0.38    -72.18   
    68. D(C   3,C   2,C   1,C   0)     47.33 -0.000318   -0.15     47.18   
    69. D(H  10,C   2,C   1,C   0)   -172.22 -0.000291    0.34   -171.89   
    70. D(H  10,C   2,C   1,H   8)     68.65 -0.000049    0.10     68.75   
    71. D(O   5,C   2,C   1,H   8)   -163.06  0.001157   -0.54   -163.59   
    72. D(O   5,C   2,C   1,H   9)     73.76  0.000632   -0.24     73.52   
    73. D(O   5,C   2,C   1,C   0)    -43.93  0.000915   -0.30    -44.23   
    74. D(C   4,C   2,C   1,H   8)   -119.09  0.000258   -0.28   -119.37   
    75. D(C   4,C   2,C   1,C   0)      0.04  0.000016   -0.04     -0.00   
    76. D(C   3,C   2,C   1,H   9)    165.03 -0.000601   -0.09    164.94   
    77. D(H  11,C   3,C   2,H  10)     42.65 -0.000113    0.17     42.83   
    78. D(C   4,C   3,C   2,O   5)     32.64 -0.000649    0.41     33.04   
    79. D(C   4,C   3,C   2,H  10)    152.33  0.000181   -0.08    152.25   
    80. D(H  11,C   3,C   2,C   1)   -179.42 -0.000375    0.73   -178.68   
    81. D(C   4,C   3,C   2,C   1)    -69.74 -0.000082    0.49    -69.26   
    82. D(H  11,C   3,C   2,C   4)   -109.67 -0.000293    0.25   -109.43   
    83. D(H  11,C   3,C   2,O   5)    -77.04 -0.000942    0.65    -76.38   
    84. D(H  12,C   3,C   2,C   4)    116.76 -0.000027    0.13    116.89   
    85. D(H  12,C   3,C   2,O   5)    149.40 -0.000675    0.53    149.93   
    86. D(H  12,C   3,C   2,C   1)     47.02 -0.000108    0.62     47.63   
    87. D(H  12,C   3,C   2,H  10)    -90.91  0.000154    0.05    -90.86   
    88. D(C   2,C   4,C   3,H  11)    109.71  0.000294   -0.25    109.45   
    89. D(C   0,C   4,C   3,H  12)    -47.04  0.000097   -0.59    -47.63   
    90. D(C   0,C   4,C   3,H  11)    179.43  0.000374   -0.71    178.72   
    91. D(H  13,C   4,C   2,H  10)     -0.06 -0.000000    0.01     -0.05   
    92. D(H  13,C   4,C   2,O   5)    -48.42  0.000000    0.50    -47.92   
    93. D(H  13,C   4,C   2,C   3)     84.97  0.000422   -0.02     84.95   
    94. D(O   5,C   4,C   2,H  10)     48.36 -0.000000   -0.49     47.87   
    95. D(O   5,C   4,C   2,C   3)    133.39  0.000422   -0.52    132.87   
    96. D(O   5,C   4,C   2,C   1)   -113.94 -0.000497    0.34   -113.60   
    97. D(C   3,C   4,C   2,H  10)    -85.03 -0.000422    0.03    -85.00   
    98. D(C   3,C   4,C   2,O   5)   -133.39 -0.000422    0.52   -132.87   
    99. D(C   3,C   4,C   2,C   1)    112.67 -0.000918    0.86    113.53   
   100. D(C   0,C   4,C   2,H  10)    162.26  0.000480   -0.78    161.48   
   101. D(C   0,C   4,C   2,O   5)    113.90  0.000481   -0.29    113.61   
   102. D(C   0,C   4,C   2,C   3)   -112.71  0.000902   -0.82   -113.53   
   103. D(C   0,C   4,C   2,C   1)     -0.04 -0.000016    0.04      0.00   
   104. D(H  13,C   4,C   0,H   7)    -68.57  0.000062   -0.17    -68.74   
   105. D(H  13,C   4,C   0,H   6)     54.62  0.000595   -0.47     54.15   
   106. D(H  13,C   4,C   0,C   1)    172.29  0.000308   -0.40    171.89   
   107. D(O   5,C   4,C   0,H   7)    163.14 -0.001121    0.44    163.58   
   108. D(O   5,C   4,C   0,H   6)    -73.66 -0.000588    0.14    -73.52   
   109. D(H  13,C   4,C   2,C   1)   -162.36 -0.000496    0.84   -161.52   
   110. D(O   5,C   4,C   0,C   1)     44.01 -0.000875    0.20     44.21   
   111. D(C   3,C   4,C   0,H   7)     71.89  0.000092    0.29     72.18   
   112. D(C   3,C   4,C   0,H   6)   -164.92  0.000625   -0.01   -164.93   
   113. D(C   0,C   4,C   3,C   2)     69.72  0.000080   -0.46     69.26   
   114. D(C   3,C   4,C   0,C   1)    -47.25  0.000338    0.05    -47.19   
   115. D(C   2,C   4,C   0,H   7)    119.17 -0.000230    0.19    119.36   
   116. D(H  13,C   4,C   3,H  11)    -42.59  0.000136   -0.19    -42.78   
   117. D(C   2,C   4,C   3,H  12)   -116.77  0.000017   -0.12   -116.89   
   118. D(C   2,C   4,C   0,H   6)   -117.64  0.000303   -0.11   -117.74   
   119. D(H  13,C   4,C   3,C   2)   -152.30 -0.000158    0.07   -152.23   
   120. D(O   5,C   4,C   3,H  12)   -149.40  0.000665   -0.53   -149.93   
   121. D(C   2,C   4,C   0,C   1)      0.04  0.000016   -0.04     -0.00   
   122. D(O   5,C   4,C   3,H  11)     77.07  0.000942   -0.66     76.42   
   123. D(H  13,C   4,C   3,H  12)     90.94 -0.000141   -0.06     90.88   
   124. D(O   5,C   4,C   3,C   2)    -32.63  0.000648   -0.40    -33.04   
   125. D(C   2,O   5,C   4,H  13)    161.25  0.000127    0.13    161.38   
[...]
  18   2.0000      -0.363444        -9.8898 
  19   2.0000      -0.361451        -9.8356 
  20   2.0000      -0.334108        -9.0915 
  21   2.0000      -0.324783        -8.8378 
  22   2.0000      -0.261864        -7.1257 
  23   0.0000       0.070869         1.9285 
  24   0.0000       0.095423         2.5966 
  25   0.0000       0.105891         2.8815 
  26   0.0000       0.112648         3.0653 
  27   0.0000       0.122053         3.3212 
  28   0.0000       0.141324         3.8456 
  29   0.0000       0.146411         3.9841 
  30   0.0000       0.157822         4.2946 
  31   0.0000       0.167443         4.5563 
  32   0.0000       0.188141         5.1196 
  33   0.0000       0.199816         5.4373 
  34   0.0000       0.213438         5.8079 
  35   0.0000       0.233229         6.3465 
  36   0.0000       0.268813         7.3148 
  37   0.0000       0.315367         8.5816 
  38   0.0000       0.429608        11.6902 
  39   0.0000       0.462852        12.5949 
  40   0.0000       0.472018        12.8443 
  41   0.0000       0.486473        13.2376 
  42   0.0000       0.500020        13.6062 
  43   0.0000       0.514828        14.0092 
  44   0.0000       0.580034        15.7835 
  45   0.0000       0.582043        15.8382 
  46   0.0000       0.592141        16.1130 
  47   0.0000       0.608978        16.5711 
  48   0.0000       0.625229        17.0133 
  49   0.0000       0.644008        17.5243 
  50   0.0000       0.648359        17.6428 
  51   0.0000       0.660939        17.9851 
  52   0.0000       0.671898        18.2833 
  53   0.0000       0.683264        18.5925 
  54   0.0000       0.691135        18.8067 
  55   0.0000       0.705361        19.1939 
  56   0.0000       0.717313        19.5191 
  57   0.0000       0.727645        19.8002 
  58   0.0000       0.752404        20.4740 
  59   0.0000       0.780829        21.2474 
  60   0.0000       0.794974        21.6323 
  61   0.0000       0.848851        23.0984 
  62   0.0000       0.935654        25.4604 
  63   0.0000       1.008188        27.4342 
  64   0.0000       1.065912        29.0049 
  65   0.0000       1.072880        29.1946 
  66   0.0000       1.145586        31.1730 
  67   0.0000       1.170433        31.8491 
  68   0.0000       1.273481        34.6532 
  69   0.0000       1.331115        36.2215 
  70   0.0000       1.354123        36.8475 
  71   0.0000       1.401297        38.1312 
  72   0.0000       1.465032        39.8655 
  73   0.0000       1.495830        40.7036 
  74   0.0000       1.566874        42.6368 
  75   0.0000       1.578045        42.9408 
  76   0.0000       1.605984        43.7010 
  77   0.0000       1.620393        44.0931 
  78   0.0000       1.646162        44.7943 
  79   0.0000       1.686691        45.8972 
  80   0.0000       1.728695        47.0402 
  81   0.0000       1.732848        47.1532 
  82   0.0000       1.744732        47.4766 
  83   0.0000       1.778310        48.3903 
  84   0.0000       1.796274        48.8791 
  85   0.0000       1.805558        49.1317 
  86   0.0000       1.832336        49.8604 
  87   0.0000       1.861581        50.6562 
  88   0.0000       1.891135        51.4604 
  89   0.0000       1.901416        51.7402 
  90   0.0000       1.952570        53.1321 
  91   0.0000       1.956990        53.2524 
  92   0.0000       2.001252        54.4568 
  93   0.0000       2.001344        54.4593 
  94   0.0000       2.030071        55.2410 
  95   0.0000       2.066195        56.2240 
  96   0.0000       2.077098        56.5207 
  97   0.0000       2.155425        58.6521 
  98   0.0000       2.234642        60.8077 
  99   0.0000       2.248527        61.1855 
 100   0.0000       2.257415        61.4274 
 101   0.0000       2.271306        61.8054 
 102   0.0000       2.302287        62.6484 
 103   0.0000       2.384167        64.8765 
 104   0.0000       2.401988        65.3614 
 105   0.0000       2.431175        66.1556 
 106   0.0000       2.594924        70.6115 
 107   0.0000       2.601455        70.7892 
 108   0.0000       2.611374        71.0591 
 109   0.0000       2.688502        73.1578 
 110   0.0000       2.740163        74.5636 
 111   0.0000       2.838896        77.2503 
 112   0.0000       2.845585        77.4323 
 113   0.0000       2.865204        77.9662 
 114   0.0000       2.870820        78.1190 
 115   0.0000       2.926088        79.6229 
 116   0.0000       2.942437        80.0678 
 117   0.0000       3.012190        81.9659 
 118   0.0000       3.078563        83.7720 
 119   0.0000       3.093278        84.1724 
 120   0.0000       3.110888        84.6516 
 121   0.0000       3.115998        84.7906 
 122   0.0000       3.273689        89.0816 
 123   0.0000       3.513189        95.5987 

                    ********************************
                    * MULLIKEN POPULATION ANALYSIS *
                    ********************************

-----------------------
MULLIKEN ATOMIC CHARGES
-----------------------
   0 C :    0.038467
   1 C :    0.037926
   2 C :   -0.012230
   3 C :    0.003326
   4 C :   -0.012491
   5 O :   -0.390965
   6 H :    0.048443
   7 H :    0.037601
   8 H :    0.037717
   9 H :    0.048507
  10 H :    0.032162
  11 H :    0.057722
  12 H :    0.041489
  13 H :    0.032326
Sum of atomic charges:    0.0000000

--------------------------------
MULLIKEN REDUCED ORBITAL CHARGES
--------------------------------
  0 C s       :     2.951392  s :     2.951392
      pz      :     0.976250  p :     2.976671
      px      :     0.981915
      py      :     1.018506
      dz2     :     0.003377  d :     0.033470
      dxz     :     0.009678
      dyz     :     0.007268
      dx2y2   :     0.005367
      dxy     :     0.007780
  1 C s       :     2.952227  s :     2.952227
      pz      :     1.031208  p :     2.976385
      px      :     0.932996
      py      :     1.012181
      dz2     :     0.008892  d :     0.033462
      dxz     :     0.006194
      dyz     :     0.005594
      dx2y2   :     0.007538
      dxy     :     0.005244
  2 C s       :     3.283083  s :     3.283083
      pz      :     0.944951  p :     2.655309
      px      :     1.011226
      py      :     0.699132
      dz2     :     0.014009  d :     0.073837
      dxz     :     0.012515
      dyz     :     0.013987
      dx2y2   :     0.019084
      dxy     :     0.014243
  3 C s       :     3.089323  s :     3.089323
      pz      :     0.936615  p :     2.873004
      px      :     0.990997
      py      :     0.945392
      dz2     :     0.008869  d :     0.034347
      dxz     :     0.007219
      dyz     :     0.004835
      dx2y2   :     0.005863
      dxy     :     0.007561
  4 C s       :     3.283233  s :     3.283233
      pz      :     0.862915  p :     2.655451
      px      :     0.838703
      py      :     0.953832
      dz2     :     0.010802  d :     0.073807
      dxz     :     0.019747
      dyz     :     0.014945
      dx2y2   :     0.016077
      dxy     :     0.012236
  5 O s       :     3.831967  s :     3.831967
      pz      :     1.585618  p :     4.540713
      px      :     1.576819
      py      :     1.378276
      dz2     :     0.002741  d :     0.018285
      dxz     :     0.003660
      dyz     :     0.003103
      dx2y2   :     0.005780
      dxy     :     0.003002
  6 H s       :     0.929067  s :     0.929067
      pz      :     0.006243  p :     0.022490
      px      :     0.005253
      py      :     0.010994
  7 H s       :     0.939862  s :     0.939862
      pz      :     0.006612  p :     0.022537
      px      :     0.009796
      py      :     0.006130
  8 H s       :     0.939746  s :     0.939746
      pz      :     0.004110  p :     0.022537
      px      :     0.005391
      py      :     0.013036
  9 H s       :     0.929005  s :     0.929005
      pz      :     0.013104  p :     0.022488
      px      :     0.003958
      py      :     0.005425
 10 H s       :     0.946360  s :     0.946360
      pz      :     0.005961  p :     0.021478
      px      :     0.010864
      py      :     0.004654
 11 H s       :     0.919415  s :     0.919415
      pz      :     0.007147  p :     0.022862
      px      :     0.011624
      py      :     0.004091
 12 H s       :     0.936266  s :     0.936266
      pz      :     0.004603  p :     0.022245
      px      :     0.007647
      py      :     0.009995
 13 H s       :     0.946197  s :     0.946197
      pz      :     0.008896  p :     0.021477
      px      :     0.003164
      py      :     0.009417


                     *******************************
                     * LOEWDIN POPULATION ANALYSIS *
                     *******************************

----------------------
LOEWDIN ATOMIC CHARGES
----------------------
   0 C :   -0.049745
   1 C :   -0.049776
   2 C :    0.076486
   3 C :   -0.050246
   4 C :    0.076545
   5 O :   -0.201323
   6 H :    0.030626
   7 H :    0.026619
   8 H :    0.026613
   9 H :    0.030660
  10 H :    0.014991
  11 H :    0.033728
  12 H :    0.019783
  13 H :    0.015038

-------------------------------
LOEWDIN REDUCED ORBITAL CHARGES
-------------------------------
  0 C s       :     2.855181  s :     2.855181
      pz      :     1.035973  p :     3.109385
      px      :     1.022179
      py      :     1.051234
      dz2     :     0.006427  d :     0.085179
      dxz     :     0.027027
      dyz     :     0.018861
      dx2y2   :     0.012969
      dxy     :     0.019895
  1 C s       :     2.855259  s :     2.855259
      pz      :     1.040941  p :     3.109351
      px      :     1.020173
      py      :     1.048236
      dz2     :     0.022174  d :     0.085167
      dxz     :     0.016493
      dyz     :     0.013493
      dx2y2   :     0.019619
      dxy     :     0.013387
  2 C s       :     2.873719  s :     2.873719
      pz      :     1.020742  p :     2.888465
      px      :     1.045930
      py      :     0.821793
      dz2     :     0.032450  d :     0.161330
      dxz     :     0.030298
      dyz     :     0.027559
      dx2y2   :     0.042202
      dxy     :     0.028820
  3 C s       :     2.867513  s :     2.867513
      pz      :     1.016910  p :     3.093557
      px      :     1.052106
      py      :     1.024541
      dz2     :     0.024373  d :     0.089176
      dxz     :     0.018546
      dyz     :     0.011293
      dx2y2   :     0.014401
      dxy     :     0.020563
  4 C s       :     2.873771  s :     2.873771
      pz      :     0.952419  p :     2.888430
      px      :     0.925829
      py      :     1.010181
      dz2     :     0.020319  d :     0.161254
      dxz     :     0.044512
      dyz     :     0.034135
      dx2y2   :     0.036965
      dxy     :     0.025323
  5 O s       :     3.529017  s :     3.529017
      pz      :     1.601503  p :     4.641879
      px      :     1.604709
      py      :     1.435668
      dz2     :     0.004616  d :     0.030427
      dxz     :     0.006530
      dyz     :     0.004768
      dx2y2   :     0.010180
      dxy     :     0.004334
  6 H s       :     0.901352  s :     0.901352
      pz      :     0.019965  p :     0.068022
      px      :     0.016209
      py      :     0.031849
  7 H s       :     0.905576  s :     0.905576
      pz      :     0.019993  p :     0.067805
      px      :     0.029092
      py      :     0.018720
  8 H s       :     0.905581  s :     0.905581
      pz      :     0.013033  p :     0.067806
      px      :     0.017518
      py      :     0.037254
  9 H s       :     0.901319  s :     0.901319
      pz      :     0.038183  p :     0.068020
      px      :     0.013582
      py      :     0.016255
 10 H s       :     0.918021  s :     0.918021
      pz      :     0.019584  p :     0.066988
      px      :     0.032868
      py      :     0.014536
 11 H s       :     0.897341  s :     0.897341
      pz      :     0.022227  p :     0.068931
      px      :     0.033771
      py      :     0.012933
 12 H s       :     0.912854  s :     0.912854
      pz      :     0.015240  p :     0.067363
      px      :     0.022083
      py      :     0.030040
 13 H s       :     0.917969  s :     0.917969
      pz      :     0.026715  p :     0.066992
      px      :     0.011407
      py      :     0.028871


                      *****************************
                      * MAYER POPULATION ANALYSIS *
                      *****************************

  NA   - Mulliken gross atomic population
  ZA   - Total nuclear charge
  QA   - Mulliken gross atomic charge
  VA   - Mayer's total valence
  BVA  - Mayer's bonded valence
  FA   - Mayer's free valence

  ATOM       NA         ZA         QA         VA         BVA        FA
  0 C      5.9615     6.0000     0.0385     3.9707     3.9707    -0.0000
  1 C      5.9621     6.0000     0.0379     3.9708     3.9708     0.0000
  2 C      6.0122     6.0000    -0.0122     3.9760     3.9760    -0.0000
  3 C      5.9967     6.0000     0.0033     3.8632     3.8632     0.0000
  4 C      6.0125     6.0000    -0.0125     3.9762     3.9762     0.0000
  5 O      8.3910     8.0000    -0.3910     1.9601     1.9601     0.0000
  6 H      0.9516     1.0000     0.0484     0.9836     0.9836     0.0000
  7 H      0.9624     1.0000     0.0376     0.9781     0.9781     0.0000
  8 H      0.9623     1.0000     0.0377     0.9781     0.9781     0.0000
  9 H      0.9515     1.0000     0.0485     0.9836     0.9836     0.0000
 10 H      0.9678     1.0000     0.0322     0.9895     0.9895    -0.0000
 11 H      0.9423     1.0000     0.0577     0.9870     0.9870     0.0000
 12 H      0.9585     1.0000     0.0415     0.9798     0.9798     0.0000
 13 H      0.9677     1.0000     0.0323     0.9896     0.9896    -0.0000

  Mayer bond orders larger than 0.100000
B(  0-C ,  1-C ) :   1.0807 B(  0-C ,  4-C ) :   1.0336 B(  0-C ,  6-H ) :   0.9314 
B(  0-C ,  7-H ) :   0.9320 B(  1-C ,  2-C ) :   1.0335 B(  1-C ,  8-H ) :   0.9322 
B(  1-C ,  9-H ) :   0.9315 B(  2-C ,  3-C ) :   1.0023 B(  2-C ,  5-O ) :   0.9378 
B(  2-C , 10-H ) :   0.9693 B(  3-C ,  4-C ) :   1.0021 B(  3-C , 11-H ) :   0.9372 
B(  3-C , 12-H ) :   0.9543 B(  4-C ,  5-O ) :   0.9381 B(  4-C , 13-H ) :   0.9693 



------------------
HIRSHFELD ANALYSIS
------------------

Total integrated alpha density =     23.000006822
Total integrated beta density  =     23.000006822

  ATOM     CHARGE      SPIN    
   0 C   -0.050001    0.000000
   1 C   -0.050029    0.000000
   2 C    0.067684    0.000000
   3 C   -0.056199    0.000000
   4 C    0.067712    0.000000
   5 O   -0.215982    0.000000
   6 H    0.027649    0.000000
   7 H    0.024501    0.000000
   8 H    0.024474    0.000000
   9 H    0.027681    0.000000
  10 H    0.037357    0.000000
  11 H    0.032040    0.000000
  12 H    0.025704    0.000000
  13 H    0.037396    0.000000

  TOTAL  -0.000014    0.000000

-------
TIMINGS
-------

Total SCF time: 0 days 0 hours 0 min 3 sec 

Total time                  ....       3.736 sec
Sum of individual times     ....       3.621 sec  ( 96.9%)

Fock matrix formation       ....       3.106 sec  ( 83.1%)
  Split-RI-J                ....       0.304 sec  (  9.8% of F)
  Chain of spheres X        ....       2.326 sec  ( 74.9% of F)
  XC integration            ....       0.466 sec  ( 15.0% of F)
    Basis function eval.    ....       0.175 sec  ( 37.5% of XC)
    Density eval.           ....       0.089 sec  ( 19.1% of XC)
    XC-Functional eval.     ....       0.045 sec  (  9.6% of XC)
    XC-Potential eval.      ....       0.095 sec  ( 20.4% of XC)
Diagonalization             ....       0.004 sec  (  0.1%)
Density matrix formation    ....       0.002 sec  (  0.0%)
Population analysis         ....       0.091 sec  (  2.4%)
Initial guess               ....       0.005 sec  (  0.1%)
Orbital Transformation      ....       0.000 sec  (  0.0%)
Orbital Orthonormalization  ....       0.002 sec  (  0.1%)
DIIS solution               ....       0.002 sec  (  0.1%)
SOSCF solution              ....       0.018 sec  (  0.5%)
Grid generation             ....       0.394 sec  ( 10.6%)

Maximum memory used throughout the entire SCF-calculation: 49.4 MB


-------------------------------------------------------------------------------
                          DFT DISPERSION CORRECTION                            
                                                                               
                              DFTD3 V3.1  Rev 1                                
                          USING Becke-Johnson damping                          
-------------------------------------------------------------------------------
The PBE0 functional is recognized
Active option DFTDOPT                   ...         4   

molecular C6(AA) [au] = 1481.773961 


            DFT-D V3
 parameters
 s6 scaling factor         :     1.0000 
 a1 scaling factor         :     0.4145 
 s8 scaling factor         :     1.2177 
 a2 scaling factor         :     4.8593 
 ad hoc parameters k1-k3   :    16.0000     1.3333    -4.0000 

 Edisp/kcal,au: -6.035904934606  -0.009618825755 
 E6   /kcal   :  -3.871259293 
 E8   /kcal   :  -2.164645642 
 % E8         :  35.862818673 

-------------------------   ----------------
Dispersion correction           -0.009618826
-------------------------   ----------------


-------------------------   --------------------
FINAL SINGLE POINT ENERGY      -270.018403608533
-------------------------   --------------------

                                *** OPTIMIZATION RUN DONE ***

                            ***************************************
                            *     ORCA property calculations      *
                            ***************************************

                                    ---------------------
                                    Active property flags
                                    ---------------------
   (+) Dipole Moment


------------------------------------------------------------------------------
                       ORCA ELECTRIC PROPERTIES CALCULATION
------------------------------------------------------------------------------

Dipole Moment Calculation                       ... on
Quadrupole Moment Calculation                   ... off
Polarizability Calculation                      ... off
GBWName                                         ... p0_C5H8O_conf0_opt_orca.gbw
Electron density                                ... p0_C5H8O_conf0_opt_orca.scfp
The origin for moment calculation is the CENTER OF MASS  = (-0.410448,  0.369577  0.046994)

-------------
DIPOLE MOMENT
-------------
                                X             Y             Z
Electronic contribution:     -2.42333       1.95711       0.05362
Nuclear contribution   :      2.80179      -2.49103      -0.28927
                        -----------------------------------------
Total Dipole Moment    :      0.37846      -0.53393      -0.23565
                        -----------------------------------------
Magnitude (a.u.)       :      0.69558
Magnitude (Debye)      :      1.76804



--------------------
Rotational spectrum 
--------------------
 
Rotational constants in cm-1:     0.188528     0.154462     0.139565 
Rotational constants in MHz :  5651.916901  4630.653772  4184.041484 

 Dipole components along the rotational axes: 
x,y,z [a.u.] :     0.249187    -0.000789     0.649418 
x,y,z [Debye]:     0.633382    -0.002006     1.650689 

 

Timings for individual modules:

Sum of individual times         ...       17.983 sec (=   0.300 min)
GTO integral calculation        ...        1.204 sec (=   0.020 min)   6.7 %
SCF iterations                  ...       13.482 sec (=   0.225 min)  75.0 %
SCF Gradient evaluation         ...        3.207 sec (=   0.053 min)  17.8 %
Geometry relaxation             ...        0.091 sec (=   0.002 min)   0.5 %
                             ****ORCA TERMINATED NORMALLY****
TOTAL RUN TIME: 0 days 0 hours 0 minutes 18 seconds 798 msec
