      -----------------------------------------------------------      
     |                   =====================                   |     
     |                           x T B                           |     
     |                   =====================                   |     
     |                         S. Grimme                         |     
     |          Mulliken Center for Theoretical Chemistry        |     
     |                    University of Bonn                     |     
      -----------------------------------------------------------      

   * xtb version 6.6.1 (8d0f1dd) compiled by 'conda@1efc2f54142f' on 2023-08-01

   xtb is free software: you can redistribute it and/or modify it under
   the terms of the GNU Lesser General Public License as published by
   the Free Software Foundation, either version 3 of the License, or
   (at your option) any later version.
   
   xtb is distributed in the hope that it will be useful,
   but WITHOUT ANY WARRANTY; without even the implied warranty of
   MERCHANTABILITY or FITNESS FOR A PARTICULAR PURPOSE.  See the
   GNU Lesser General Public License for more details.
   
   Cite this work as:
   * C. Bannwarth, E. Caldeweyher, S. Ehlert, A. Hansen, P. Pracht,
     J. Seibert, S. Spicher, S. Grimme, WIREs Comput. Mol. Sci., 2020, 11,
     e01493. DOI: 10.1002/wcms.1493
   
   for GFN2-xTB:
   * C. Bannwarth, S. Ehlert and S. Grimme., J. Chem. Theory Comput., 2019,
     15, 1652-1671. DOI: 10.1021/acs.jctc.8b01176
   for GFN1-xTB:
   * S. Grimme, C. Bannwarth, P. Shushkov, J. Chem. Theory Comput., 2017,
     13, 1989-2009. DOI: 10.1021/acs.jctc.7b00118
   for GFN0-xTB:
   * P. Pracht, E. Caldeweyher, S. Ehlert, S. Grimme, ChemRxiv, 2019, preprint.
     DOI: 10.26434/chemrxiv.8326202.v1
   for GFN-FF:
   * S. Spicher and S. Grimme, Angew. Chem. Int. Ed., 2020, 59, 15665-15673.
     DOI: 10.1002/anie.202004239
   
   for ALPB and GBSA implicit solvation:
   * S. Ehlert, M. Stahn, S. Spicher, S. Grimme, J. Chem. Theory Comput.,
     2021, 17, 4250-4261. DOI: 10.1021/acs.jctc.1c00471
   
   for DFT-D4:
   * E. Caldeweyher, C. Bannwarth and S. Grimme, J. Chem. Phys., 2017,
     147, 034112. DOI: 10.1063/1.4993215
   * E. Caldeweyher, S. Ehlert, A. Hansen, H. Neugebauer, S. Spicher,
     C. Bannwarth and S. Grimme, J. Chem. Phys., 2019, 150, 154122.
     DOI: 10.1063/1.5090222
   * E. Caldeweyher, J.-M. Mewes, S. Ehlert and S. Grimme, Phys. Chem. Chem. Phys.
     2020, 22, 8499-8512. DOI: 10.1039/D0CP00502A
   
   for sTDA-xTB:
   * S. Grimme and C. Bannwarth, J. Chem. Phys., 2016, 145, 054103.
     DOI: 10.1063/1.4959605
   
   in the mass-spec context:
   * V. Asgeirsson, C. Bauer and S. Grimme, Chem. Sci., 2017, 8, 4879.
     DOI: 10.1039/c7sc00601b
   * J. Koopman and S. Grimme, ACS Omega 2019, 4, 12, 15120-15133.
     DOI: 10.1021/acsomega.9b02011
   
   for metadynamics refer to:
   * S. Grimme, J. Chem. Theory Comput., 2019, 155, 2847-2862
     DOI: 10.1021/acs.jctc.9b00143
   
   for SPH calculations refer to:
   * S. Spicher and S. Grimme, J. Chem. Theory Comput., 2021, 17, 1701-1714
     DOI: 10.1021/acs.jctc.0c01306
   
   with help from (in alphabetical order)
   P. Atkinson, C. Bannwarth, F. Bohle, G. Brandenburg, E. Caldeweyher
   M. Checinski, S. Dohm, S. Ehlert, S. Ehrlich, I. Gerasimov, C. Hölzer
   A. Katbashev, J. Koopman, C. Lavigne, S. Lehtola, F. März, M. Müller,
   F. Musil, H. Neugebauer, J. Pisarek, C. Plett, P. Pracht, F. Pultar,
   J. Seibert, P. Shushkov, S. Spicher, M. Stahn, M. Steiner, T. Strunk,
   J. Stückrath, T. Rose, and J. Unsleber
   
 * started run on 2025/05/23 at 13:07:09.342     

           -------------------------------------------------
          |                Calculation Setup                |
           -------------------------------------------------

          program call               : /gpfs/fs1/home/copan/code/autode-practice/.pixi/envs/default/bin/xtb r0_C5H9O2_conf1_opt_xtb.xyz --chrg 0 --uhf 1 --opt
          hostname                   : csed-0021
          coordinate file            : r0_C5H9O2_conf1_opt_xtb.xyz
          omp threads                :                     4

   ID    Z sym.   atoms
    1    8 O      1, 2
    2    6 C      3-7
    3    1 H      8-16

           -------------------------------------------------
          |                 G F N 2 - x T B                 |
           -------------------------------------------------

        Reference                      10.1021/acs.jctc.8b01176
      * Hamiltonian:
        H0-scaling (s, p, d)           1.850000    2.230000    2.230000
        zeta-weighting                 0.500000
      * Dispersion:
        s8                             2.700000
        a1                             0.520000
        a2                             5.000000
        s9                             5.000000
      * Repulsion:
        kExp                           1.500000    1.000000
        rExp                           1.000000
      * Coulomb:
        alpha                          2.000000
        third order                    shell-resolved
        anisotropic                    true
        a3                             3.000000
        a5                             4.000000
        cn-shift                       1.200000
        cn-exp                         4.000000
        max-rad                        5.000000


          ...................................................
          :                      SETUP                      :
          :.................................................:
          :  # basis functions                  37          :
          :  # atomic orbitals                  37          :
          :  # shells                           23          :
          :  # electrons                        41          :
          :  max. iterations                   250          :
          :  Hamiltonian                  GFN2-xTB          :
          :  restarted?                      false          :
          :  GBSA solvation                  false          :
          :  PC potential                    false          :
          :  electronic temp.          300.0000000     K    :
          :  accuracy                    1.0000000          :
          :  -> integral cutoff          0.2500000E+02      :
          :  -> integral neglect         0.1000000E-07      :
          :  -> SCF convergence          0.1000000E-05 Eh   :
          :  -> wf. convergence          0.1000000E-03 e    :
          :  Broyden damping             0.4000000          :
          ...................................................

 iter      E             dE          RMSdq      gap      omega  full diag
   1    -23.4471870 -0.234472E+02  0.383E+00    7.79       0.0  T
   2    -23.4679229 -0.207359E-01  0.226E+00    7.66       1.0  T
   3    -23.4686285 -0.705638E-03  0.621E-01    7.40       1.0  T
   4    -23.4692239 -0.595397E-03  0.130E-01    7.16       1.0  T
   5    -23.4692861 -0.621538E-04  0.672E-02    7.23       1.0  T
   6    -23.4692901 -0.407450E-05  0.161E-02    7.27       1.6  T
   7    -23.4692908 -0.620161E-06  0.736E-03    7.27       3.4  T
   8    -23.4692909 -0.101716E-06  0.202E-03    7.26      12.4  T
   9    -23.4692909 -0.464404E-08  0.717E-04    7.26      34.9  T
  10    -23.4692909 -0.149283E-08  0.184E-04    7.26     135.6  T

   *** convergence criteria satisfied after 10 iterations ***

         #    Occupation            Energy/Eh            Energy/eV
      -------------------------------------------------------------
         1        2.0000           -0.7345621             -19.9885
       ...           ...                  ...                  ...
        15        2.0000           -0.4592686             -12.4973
        16        2.0000           -0.4468009             -12.1581
        17        2.0000           -0.4414351             -12.0121
        18        2.0000           -0.4392762             -11.9533
        19        2.0000           -0.4261487             -11.5961
        20        2.0000           -0.3963447             -10.7851
        21        1.0000           -0.3152919              -8.5795 (HOMO)
        22                         -0.0483478              -1.3156 (LUMO)
        23                          0.0656197               1.7856
        24                          0.0709022               1.9293
        25                          0.0890993               2.4245
        26                          0.1004927               2.7345
       ...                                ...                  ...
        37                          0.3154166               8.5829
      -------------------------------------------------------------
                  HL-Gap            0.2669441 Eh            7.2639 eV
             Fermi-level           -0.2688191 Eh           -7.3149 eV

 SCC (total)                   0 d,  0 h,  0 min,  0.010 sec
 SCC setup                      ...        0 min,  0.000 sec (  3.630%)
 Dispersion                     ...        0 min,  0.000 sec (  2.045%)
 classical contributions        ...        0 min,  0.000 sec (  0.871%)
 integral evaluation            ...        0 min,  0.001 sec (  7.160%)
 iterations                     ...        0 min,  0.007 sec ( 69.274%)
 molecular gradient             ...        0 min,  0.001 sec ( 14.793%)
 printout                       ...        0 min,  0.000 sec (  2.004%)

         :::::::::::::::::::::::::::::::::::::::::::::::::::::
         ::                     SUMMARY                     ::
         :::::::::::::::::::::::::::::::::::::::::::::::::::::
         :: total energy             -23.246785496195 Eh    ::
         :: gradient norm              0.149913579452 Eh/a0 ::
         :: HOMO-LUMO gap              7.263919470945 eV    ::
         ::.................................................::
         :: SCC energy               -23.469290872403 Eh    ::
         :: -> isotropic ES            0.028564353997 Eh    ::
         :: -> anisotropic ES         -0.002331828733 Eh    ::
         :: -> anisotropic XC         -0.005287545693 Eh    ::
         :: -> dispersion             -0.009857451201 Eh    ::
         :: repulsion energy           0.222479778748 Eh    ::
         :: add. restraining           0.000000000000 Eh    ::
         :: total charge              -0.000000000000 e     ::
         :::::::::::::::::::::::::::::::::::::::::::::::::::::

      ----------------------------------------------------------- 
     |                   =====================                   |
     |                        A N C O P T                        |
     |                   =====================                   |
     |               Approximate Normal Coordinate               |
     |                Rational Function Optimizer                |
      ----------------------------------------------------------- 

          ...................................................
          :                      SETUP                      :
          :.................................................:
          :   optimization level            normal          :
          :   max. optcycles                   200          :
          :   ANC micro-cycles                  20          :
          :   degrees of freedom                42          :
          :.................................................:
          :   RF solver                   davidson          :
          :   write xtbopt.log                true          :
          :   linear?                        false          :
          :   energy convergence         0.5000000E-05 Eh   :
          :   grad. convergence          0.1000000E-02 Eh/α :
          :   maxmium RF displ.          1.0000000          :
          :   Hlow (freq-cutoff)         0.1000000E-01      :
          :   Hmax (freq-cutoff)         5.0000000          :
          :   S6 in model hess.         20.0000000          :
          ...................................................

generating ANC from model Hessian ...
Using Lindh-Hessian (1995)
 Shifting diagonal of input Hessian by    4.0260309877172629E-003
 Lowest  eigenvalues of input Hessian
    0.000000    0.000000    0.000000    0.000000    0.000000    0.000000
    0.010000    0.011164    0.016482    0.023497    0.028159    0.045764
    0.047540    0.052089    0.054812    0.055569    0.057727    0.061410
 Highest eigenvalues
    1.198271    1.249131    1.263251    1.303034    1.422188    1.777192


........................................................................
.............................. CYCLE    1 ..............................
........................................................................

 iter      E             dE          RMSdq      gap      omega  full diag
   1    -23.4692909 -0.234693E+02  0.885E-05    7.26       0.0  T
   2    -23.4692909 -0.316795E-10  0.567E-05    7.26     441.2  T
   3    -23.4692909 -0.107612E-10  0.369E-05    7.26     677.3  T
     SCC iter.                  ...        0 min,  0.002 sec
     gradient                   ...        0 min,  0.001 sec
 * total energy  :   -23.2467855 Eh     change       -0.1412168E-09 Eh
   gradient norm :     0.1499136 Eh/α   predicted     0.0000000E+00 (-100.00%)
   displ. norm   :     0.3584248 α      lambda       -0.2884045E-01
   maximum displ.:     0.1429883 α      in ANC's #18, #14, #6, ...

........................................................................
.............................. CYCLE    2 ..............................
........................................................................

 iter      E             dE          RMSdq      gap      omega  full diag
   1    -23.4907894 -0.234908E+02  0.467E-01    5.30       0.0  T
   2    -23.4908616 -0.721340E-04  0.281E-01    5.38       1.0  T
   3    -23.4908693 -0.772561E-05  0.341E-02    5.47       1.0  T
   4    -23.4908743 -0.502477E-05  0.129E-02    5.45       1.9  T
   5    -23.4908751 -0.757649E-06  0.409E-03    5.44       6.1  T
   6    -23.4908751 -0.283834E-07  0.184E-03    5.44      13.6  T
   7    -23.4908751 -0.105501E-07  0.668E-04    5.44      37.4  T
   8    -23.4908751 -0.212934E-08  0.319E-04    5.44      78.3  T
     SCC iter.                  ...        0 min,  0.004 sec
     gradient                   ...        0 min,  0.001 sec
 * total energy  :   -23.2658489 Eh     change       -0.1906336E-01 Eh
   gradient norm :     0.0590366 Eh/α   predicted    -0.1627276E-01 ( -14.64%)
   displ. norm   :     0.2474421 α      lambda       -0.7118459E-02
   maximum displ.:     0.1080188 α      in ANC's #5, #7, #6, ...

........................................................................
.............................. CYCLE    3 ..............................
........................................................................

 iter      E             dE          RMSdq      gap      omega  full diag
   1    -23.4984112 -0.234984E+02  0.286E-01    4.36       0.0  T
   2    -23.4984454 -0.341320E-04  0.171E-01    4.41       1.0  T
   3    -23.4984471 -0.176012E-05  0.265E-02    4.46       1.0  T
   4    -23.4984506 -0.347045E-05  0.887E-03    4.46       2.8  T
   5    -23.4984509 -0.297574E-06  0.297E-03    4.45       8.4  T
   6    -23.4984509 -0.156743E-07  0.134E-03    4.45      18.6  T
   7    -23.4984509 -0.529148E-08  0.621E-04    4.45      40.3  T
   8    -23.4984509 -0.198371E-08  0.284E-04    4.45      87.9  T
     SCC iter.                  ...        0 min,  0.004 sec
     gradient                   ...        0 min,  0.001 sec
 * total energy  :   -23.2705306 Eh     change       -0.4681780E-02 Eh
   gradient norm :     0.0221239 Eh/α   predicted    -0.3777155E-02 ( -19.32%)
   displ. norm   :     0.1812566 α      lambda       -0.1975351E-02
   maximum displ.:     0.0996752 α      in ANC's #5, #4, #7, ...

........................................................................
.............................. CYCLE    4 ..............................
........................................................................

 iter      E             dE          RMSdq      gap      omega  full diag
   1    -23.5011652 -0.235012E+02  0.183E-01    3.96       0.0  T
   2    -23.5011757 -0.105327E-04  0.108E-01    3.99       1.0  T
   3    -23.5011764 -0.699579E-06  0.143E-02    4.01       1.7  T
   4    -23.5011774 -0.922548E-06  0.495E-03    4.01       5.0  T
   5    -23.5011774 -0.768128E-07  0.184E-03    4.01      13.6  T
   6    -23.5011775 -0.555524E-08  0.768E-04    4.00      32.6  T
   7    -23.5011775 -0.165959E-08  0.347E-04    4.00      72.0  T
     SCC iter.                  ...        0 min,  0.003 sec
     gradient                   ...        0 min,  0.001 sec
 * total energy  :   -23.2718680 Eh     change       -0.1337370E-02 Eh
   gradient norm :     0.0149588 Eh/α   predicted    -0.1020125E-02 ( -23.72%)
   displ. norm   :     0.1406502 α      lambda       -0.8056927E-03
   maximum displ.:     0.0850528 α      in ANC's #5, #7, #6, ...

........................................................................
.............................. CYCLE    5 ..............................
........................................................................

 iter      E             dE          RMSdq      gap      omega  full diag
   1    -23.5029359 -0.235029E+02  0.146E-01    3.83       0.0  T
   2    -23.5029389 -0.301499E-05  0.863E-02    3.83       1.0  T
   3    -23.5029393 -0.371607E-06  0.714E-03    3.85       3.5  T
   4    -23.5029396 -0.245310E-06  0.297E-03    3.84       8.4  T
   5    -23.5029396 -0.160318E-07  0.103E-03    3.84      24.2  T
   6    -23.5029396 -0.946109E-09  0.342E-04    3.84      73.0  T
   7    -23.5029396 -0.231100E-09  0.133E-04    3.84     187.6  T
     SCC iter.                  ...        0 min,  0.003 sec
     gradient                   ...        0 min,  0.001 sec
 * total energy  :   -23.2724499 Eh     change       -0.5818837E-03 Eh
   gradient norm :     0.0139031 Eh/α   predicted    -0.4108167E-03 ( -29.40%)
   displ. norm   :     0.1515307 α      lambda       -0.5976035E-03
   maximum displ.:     0.0908524 α      in ANC's #5, #3, #7, ...

........................................................................
.............................. CYCLE    6 ..............................
........................................................................

 iter      E             dE          RMSdq      gap      omega  full diag
   1    -23.5045278 -0.235045E+02  0.155E-01    3.82       0.0  T
   2    -23.5045301 -0.230062E-05  0.919E-02    3.82       1.0  T
   3    -23.5045303 -0.181327E-06  0.676E-03    3.83       3.7  T
   4    -23.5045307 -0.375185E-06  0.280E-03    3.83       8.9  T
   5    -23.5045307 -0.812170E-08  0.938E-04    3.82      26.7  T
   6    -23.5045307 -0.115883E-08  0.311E-04    3.82      80.3  T
     SCC iter.                  ...        0 min,  0.003 sec
     gradient                   ...        0 min,  0.001 sec
 * total energy  :   -23.2728952 Eh     change       -0.4453384E-03 Eh
   gradient norm :     0.0105727 Eh/α   predicted    -0.3056632E-03 ( -31.36%)
   displ. norm   :     0.2023452 α      lambda       -0.5242806E-03
   maximum displ.:     0.1232219 α      in ANC's #3, #5, #7, ...

........................................................................
.............................. CYCLE    7 ..............................
........................................................................

 iter      E             dE          RMSdq      gap      omega  full diag
   1    -23.5055570 -0.235056E+02  0.186E-01    3.88       0.0  T
   2    -23.5055601 -0.311175E-05  0.111E-01    3.88       1.0  T
   3    -23.5055603 -0.171019E-06  0.838E-03    3.88       3.0  T
   4    -23.5055609 -0.627700E-06  0.344E-03    3.88       7.3  T
   5    -23.5055609 -0.823439E-08  0.112E-03    3.88      22.2  T
   6    -23.5055609 -0.239084E-08  0.359E-04    3.88      69.7  T
   7    -23.5055609 -0.243976E-09  0.127E-04    3.88     197.3  T
     SCC iter.                  ...        0 min,  0.003 sec
     gradient                   ...        0 min,  0.001 sec
 * total energy  :   -23.2732767 Eh     change       -0.3814664E-03 Eh
   gradient norm :     0.0074330 Eh/α   predicted    -0.2728728E-03 ( -28.47%)
   displ. norm   :     0.2400940 α      lambda       -0.4115121E-03
   maximum displ.:     0.1707659 α      in ANC's #3, #2, #5, ...

........................................................................
.............................. CYCLE    8 ..............................
........................................................................

 iter      E             dE          RMSdq      gap      omega  full diag
   1    -23.5061776 -0.235062E+02  0.198E-01    3.91       0.0  T
   2    -23.5061810 -0.341102E-05  0.119E-01    3.91       1.0  T
   3    -23.5061817 -0.684780E-06  0.905E-03    3.92       2.8  T
   4    -23.5061822 -0.506592E-06  0.463E-03    3.91       5.4  T
   5    -23.5061822 -0.108743E-07  0.117E-03    3.91      21.4  T
   6    -23.5061822 -0.450210E-08  0.374E-04    3.91      66.9  T
   7    -23.5061822 -0.262112E-09  0.825E-05    3.91     303.1  T
     SCC iter.                  ...        0 min,  0.003 sec
     gradient                   ...        0 min,  0.001 sec
 * total energy  :   -23.2735788 Eh     change       -0.3020712E-03 Eh
   gradient norm :     0.0086902 Eh/α   predicted    -0.2176201E-03 ( -27.96%)
   displ. norm   :     0.3130462 α      lambda       -0.4382829E-03
   maximum displ.:     0.2450368 α      in ANC's #3, #1, #2, ...

........................................................................
.............................. CYCLE    9 ..............................
........................................................................

 iter      E             dE          RMSdq      gap      omega  full diag
   1    -23.5061658 -0.235062E+02  0.262E-01    3.84       0.0  T
   2    -23.5061728 -0.707284E-05  0.160E-01    3.84       1.0  T
   3    -23.5061757 -0.289106E-05  0.126E-02    3.86       2.0  T
   4    -23.5061761 -0.406041E-06  0.726E-03    3.85       3.4  T
   5    -23.5061762 -0.343261E-07  0.160E-03    3.85      15.7  T
   6    -23.5061762 -0.666671E-08  0.570E-04    3.85      43.9  T
   7    -23.5061762 -0.114139E-08  0.196E-04    3.85     127.6  T
     SCC iter.                  ...        0 min,  0.003 sec
     gradient                   ...        0 min,  0.001 sec
 * total energy  :   -23.2738836 Eh     change       -0.3047823E-03 Eh
   gradient norm :     0.0095480 Eh/α   predicted    -0.2406157E-03 ( -21.05%)
   displ. norm   :     0.4082046 α      lambda       -0.7222877E-03
   maximum displ.:     0.2943670 α      in ANC's #3, #2, #1, ...

........................................................................
.............................. CYCLE   10 ..............................
........................................................................

 iter      E             dE          RMSdq      gap      omega  full diag
   1    -23.5092688 -0.235093E+02  0.317E-01    3.62       0.0  T
   2    -23.5092843 -0.155018E-04  0.197E-01    3.63       1.0  T
   3    -23.5092907 -0.642956E-05  0.170E-02    3.66       1.5  T
   4    -23.5092916 -0.869112E-06  0.909E-03    3.65       2.8  T
   5    -23.5092917 -0.621410E-07  0.215E-03    3.65      11.7  T
   6    -23.5092917 -0.669815E-08  0.728E-04    3.65      34.3  T
   7    -23.5092917 -0.220663E-08  0.310E-04    3.65      80.8  T
     SCC iter.                  ...        0 min,  0.003 sec
     gradient                   ...        0 min,  0.001 sec
 * total energy  :   -23.2737667 Eh     change        0.1168997E-03 Eh
   gradient norm :     0.0250441 Eh/α   predicted    -0.4213244E-03 (-460.42%)
   displ. norm   :     0.1604109 α      lambda       -0.1043665E-02
   maximum displ.:     0.1286228 α      in ANC's #3, #1, #6, ...

........................................................................
.............................. CYCLE   11 ..............................
........................................................................

 iter      E             dE          RMSdq      gap      omega  full diag
   1    -23.5055889 -0.235056E+02  0.137E-01    3.65       0.0  T
   2    -23.5055916 -0.268583E-05  0.814E-02    3.66       1.0  T
   3    -23.5055920 -0.368165E-06  0.542E-03    3.66       4.6  T
   4    -23.5055920 -0.466340E-07  0.255E-03    3.66       9.8  T
   5    -23.5055920 -0.568901E-08  0.114E-03    3.66      21.9  T
   6    -23.5055920 -0.254708E-08  0.293E-04    3.66      85.5  T
   7    -23.5055920 -0.190923E-09  0.134E-04    3.66     185.9  T
     SCC iter.                  ...        0 min,  0.003 sec
     gradient                   ...        0 min,  0.001 sec
 * total energy  :   -23.2742915 Eh     change       -0.5248076E-03 Eh
   gradient norm :     0.0113351 Eh/α   predicted    -0.5352610E-03 (   1.99%)
   displ. norm   :     0.2174001 α      lambda       -0.4961060E-03
   maximum displ.:     0.1278305 α      in ANC's #2, #3, #15, ...

........................................................................
.............................. CYCLE   12 ..............................
........................................................................

 iter      E             dE          RMSdq      gap      omega  full diag
   1    -23.5091626 -0.235092E+02  0.204E-01    4.03       0.0  T
   2    -23.5091709 -0.830310E-05  0.125E-01    4.00       1.0  T
   3    -23.5091725 -0.161315E-05  0.111E-02    3.98       2.2  T
   4    -23.5091730 -0.452468E-06  0.522E-03    3.98       4.8  T
   5    -23.5091730 -0.391045E-07  0.230E-03    3.98      10.9  T
   6    -23.5091730 -0.562092E-08  0.689E-04    3.98      36.3  T
   7    -23.5091730 -0.888797E-09  0.209E-04    3.98     119.4  T
     SCC iter.                  ...        0 min,  0.003 sec
     gradient                   ...        0 min,  0.001 sec
 * total energy  :   -23.2743339 Eh     change       -0.4245876E-04 Eh
   gradient norm :     0.0124506 Eh/α   predicted    -0.2597765E-03 ( 511.83%)
   displ. norm   :     0.2486464 α      lambda       -0.4341388E-03
   maximum displ.:     0.1875598 α      in ANC's #3, #2, #4, ...

........................................................................
.............................. CYCLE   13 ..............................
........................................................................

 iter      E             dE          RMSdq      gap      omega  full diag
   1    -23.5069074 -0.235069E+02  0.176E-01    3.86       0.0  T
   2    -23.5069110 -0.366500E-05  0.108E-01    3.86       1.0  T
   3    -23.5069119 -0.912316E-06  0.801E-03    3.88       3.1  T
   4    -23.5069122 -0.226824E-06  0.407E-03    3.88       6.1  T
   5    -23.5069122 -0.931707E-08  0.128E-03    3.88      19.6  T
   6    -23.5069122 -0.132774E-08  0.271E-04    3.87      92.4  T
   7    -23.5069122 -0.195449E-09  0.117E-04    3.87     213.1  T
     SCC iter.                  ...        0 min,  0.003 sec
     gradient                   ...        0 min,  0.001 sec
 * total energy  :   -23.2746461 Eh     change       -0.3121607E-03 Eh
   gradient norm :     0.0054671 Eh/α   predicted    -0.2304917E-03 ( -26.16%)
   displ. norm   :     0.4709697 α      lambda       -0.4930714E-03
   maximum displ.:     0.3725087 α      in ANC's #3, #1, #2, ...

........................................................................
.............................. CYCLE   14 ..............................
........................................................................

 iter      E             dE          RMSdq      gap      omega  full diag
   1    -23.5032204 -0.235032E+02  0.371E-01    3.37       0.0  T
   2    -23.5032418 -0.213889E-04  0.230E-01    3.40       1.0  T
   3    -23.5032491 -0.727519E-05  0.190E-02    3.44       1.3  T
   4    -23.5032500 -0.944762E-06  0.101E-02    3.43       2.5  T
   5    -23.5032501 -0.781261E-07  0.284E-03    3.43       8.8  T
   6    -23.5032501 -0.842496E-08  0.955E-04    3.43      26.2  T
   7    -23.5032501 -0.225669E-08  0.277E-04    3.43      90.3  T
     SCC iter.                  ...        0 min,  0.003 sec
     gradient                   ...        0 min,  0.001 sec
 * total energy  :   -23.2746630 Eh     change       -0.1693511E-04 Eh
   gradient norm :     0.0187177 Eh/α   predicted    -0.3012164E-03 (1678.65%)
   displ. norm   :     0.1770276 α      lambda       -0.5606180E-03
   maximum displ.:     0.1295737 α      in ANC's #3, #2, #1, ...

........................................................................
.............................. CYCLE   15 ..............................
........................................................................

 iter      E             dE          RMSdq      gap      omega  full diag
   1    -23.5070694 -0.235071E+02  0.163E-01    3.75       0.0  T
   2    -23.5070753 -0.586463E-05  0.996E-02    3.73       1.0  T
   3    -23.5070764 -0.107163E-05  0.886E-03    3.71       2.8  T
   4    -23.5070766 -0.187078E-06  0.416E-03    3.72       6.0  T
   5    -23.5070766 -0.181115E-07  0.164E-03    3.72      15.2  T
   6    -23.5070766 -0.244729E-08  0.506E-04    3.72      49.5  T
   7    -23.5070766 -0.415898E-09  0.115E-04    3.72     217.2  T
     SCC iter.                  ...        0 min,  0.003 sec
     gradient                   ...        0 min,  0.001 sec
 * total energy  :   -23.2749392 Eh     change       -0.2761420E-03 Eh
   gradient norm :     0.0063680 Eh/α   predicted    -0.2890963E-03 (   4.69%)
   displ. norm   :     0.1115183 α      lambda       -0.1209989E-03
   maximum displ.:     0.0843643 α      in ANC's #3, #4, #1, ...

........................................................................
.............................. CYCLE   16 ..............................
........................................................................

 iter      E             dE          RMSdq      gap      omega  full diag
   1    -23.5072877 -0.235073E+02  0.685E-02    3.75       0.0  T
   2    -23.5072884 -0.713220E-06  0.426E-02    3.75       1.0  T
   3    -23.5072886 -0.264782E-06  0.352E-03    3.75       7.1  T
   4    -23.5072887 -0.378827E-07  0.175E-03    3.75      14.3  T
   5    -23.5072887 -0.245281E-08  0.582E-04    3.75      43.0  T
   6    -23.5072887 -0.454254E-09  0.150E-04    3.75     166.4  T
     SCC iter.                  ...        0 min,  0.003 sec
     gradient                   ...        0 min,  0.001 sec
 * total energy  :   -23.2750428 Eh     change       -0.1036948E-03 Eh
   gradient norm :     0.0056028 Eh/α   predicted    -0.6125292E-04 ( -40.93%)
   displ. norm   :     0.3554935 α      lambda       -0.3517899E-03
   maximum displ.:     0.2632121 α      in ANC's #3, #4, #2, ...

........................................................................
.............................. CYCLE   17 ..............................
........................................................................

 iter      E             dE          RMSdq      gap      omega  full diag
   1    -23.5078640 -0.235079E+02  0.264E-01    3.61       0.0  T
   2    -23.5078740 -0.999374E-05  0.166E-01    3.62       1.0  T
   3    -23.5078787 -0.475013E-05  0.122E-02    3.64       2.1  T
   4    -23.5078792 -0.525124E-06  0.642E-03    3.63       3.9  T
   5    -23.5078793 -0.295730E-07  0.126E-03    3.63      19.8  T
   6    -23.5078793 -0.319801E-08  0.586E-04    3.63      42.7  T
   7    -23.5078793 -0.112871E-08  0.230E-04    3.63     108.5  T
     SCC iter.                  ...        0 min,  0.003 sec
     gradient                   ...        0 min,  0.001 sec
 * total energy  :   -23.2752736 Eh     change       -0.2307974E-03 Eh
   gradient norm :     0.0098457 Eh/α   predicted    -0.1981215E-03 ( -14.16%)
   displ. norm   :     0.2018056 α      lambda       -0.2163086E-03
   maximum displ.:     0.1264301 α      in ANC's #3, #4, #2, ...

........................................................................
.............................. CYCLE   18 ..............................
........................................................................

 iter      E             dE          RMSdq      gap      omega  full diag
   1    -23.5079447 -0.235079E+02  0.151E-01    3.65       0.0  T
   2    -23.5079474 -0.274339E-05  0.949E-02    3.66       1.0  T
   3    -23.5079488 -0.135944E-05  0.591E-03    3.66       4.2  T
   4    -23.5079489 -0.158373E-06  0.307E-03    3.66       8.1  T
   5    -23.5079489 -0.480079E-08  0.562E-04    3.66      44.5  T
   6    -23.5079489 -0.930015E-09  0.238E-04    3.66     105.2  T
     SCC iter.                  ...        0 min,  0.003 sec
     gradient                   ...        0 min,  0.001 sec
 * total energy  :   -23.2754330 Eh     change       -0.1593786E-03 Eh
   gradient norm :     0.0086259 Eh/α   predicted    -0.1125579E-03 ( -29.38%)
   displ. norm   :     0.2004820 α      lambda       -0.3316770E-03
   maximum displ.:     0.1128254 α      in ANC's #2, #4, #5, ...

........................................................................
.............................. CYCLE   19 ..............................
........................................................................

 iter      E             dE          RMSdq      gap      omega  full diag
   1    -23.5109030 -0.235109E+02  0.174E-01    3.79       0.0  T
   2    -23.5109077 -0.463456E-05  0.110E-01    3.78       1.0  T
   3    -23.5109101 -0.237532E-05  0.678E-03    3.78       3.7  T
   4    -23.5109102 -0.161724E-06  0.347E-03    3.78       7.2  T
   5    -23.5109102 -0.125315E-07  0.111E-03    3.78      22.5  T
   6    -23.5109102 -0.125791E-08  0.339E-04    3.78      73.8  T
   7    -23.5109102 -0.248548E-09  0.126E-04    3.78     198.0  T
     SCC iter.                  ...        0 min,  0.003 sec
     gradient                   ...        0 min,  0.001 sec
 * total energy  :   -23.2756517 Eh     change       -0.2186301E-03 Eh
   gradient norm :     0.0066308 Eh/α   predicted    -0.1725058E-03 ( -21.10%)
   displ. norm   :     0.3856341 α      lambda       -0.3117556E-03
   maximum displ.:     0.2157166 α      in ANC's #2, #3, #4, ...

........................................................................
.............................. CYCLE   20 ..............................
........................................................................

 iter      E             dE          RMSdq      gap      omega  full diag
   1    -23.5089673 -0.235090E+02  0.313E-01    3.48       0.0  T
   2    -23.5089838 -0.165242E-04  0.198E-01    3.50       1.0  T
   3    -23.5089911 -0.731317E-05  0.128E-02    3.52       2.0  T
   4    -23.5089917 -0.585975E-06  0.621E-03    3.52       4.0  T
   5    -23.5089917 -0.352822E-07  0.219E-03    3.51      11.4  T
   6    -23.5089917 -0.366249E-08  0.586E-04    3.51      42.7  T
   7    -23.5089917 -0.475215E-09  0.197E-04    3.51     126.8  T
     SCC iter.                  ...        0 min,  0.003 sec
     gradient                   ...        0 min,  0.001 sec
 * total energy  :   -23.2757047 Eh     change       -0.5305050E-04 Eh
   gradient norm :     0.0144450 Eh/α   predicted    -0.1790580E-03 ( 237.52%)
   displ. norm   :     0.1442085 α      lambda       -0.4808169E-03
   maximum displ.:     0.1262280 α      in ANC's #3, #1, #2, ...
 * RMSD in coord.:     0.6972123 α      energy gain  -0.2891921E-01 Eh

generating ANC from model Hessian ...
Using Lindh-Hessian (1995)
 Shifting diagonal of input Hessian by    5.5218160160294179E-003
 Lowest  eigenvalues of input Hessian
    0.000000    0.000000    0.000000    0.000000    0.000000    0.000000
    0.010000    0.012292    0.017555    0.024241    0.027263    0.036910
    0.048611    0.053869    0.055541    0.056124    0.059714    0.062204
 Highest eigenvalues
    1.239072    1.247107    1.289841    1.386735    1.410190    1.478311


........................................................................
.............................. CYCLE   21 ..............................
........................................................................

 iter      E             dE          RMSdq      gap      omega  full diag
   1    -23.5093225 -0.235093E+02  0.962E-02    3.97       0.0  T
   2    -23.5093266 -0.409992E-05  0.583E-02    3.95       1.0  T
   3    -23.5093271 -0.532297E-06  0.775E-03    3.93       3.2  T
   4    -23.5093273 -0.172467E-06  0.310E-03    3.93       8.1  T
   5    -23.5093273 -0.203933E-07  0.114E-03    3.93      21.9  T
   6    -23.5093273 -0.118645E-08  0.449E-04    3.93      55.7  T
   7    -23.5093273 -0.192557E-09  0.132E-04    3.93     189.9  T
     SCC iter.                  ...        0 min,  0.003 sec
     gradient                   ...        0 min,  0.001 sec
 * total energy  :   -23.2759371 Eh     change       -0.2324136E-03 Eh
   gradient norm :     0.0072928 Eh/α   predicted     0.0000000E+00 (-100.00%)
   displ. norm   :     0.0812613 α      lambda       -0.1789280E-03
   maximum displ.:     0.0515647 α      in ANC's #1, #2, #3, ...

........................................................................
.............................. CYCLE   22 ..............................
........................................................................

 iter      E             dE          RMSdq      gap      omega  full diag
   1    -23.5093170 -0.235093E+02  0.701E-02    3.88       0.0  T
   2    -23.5093180 -0.103053E-05  0.444E-02    3.88       1.0  T
   3    -23.5093184 -0.434664E-06  0.380E-03    3.89       6.6  T
   4    -23.5093185 -0.755497E-07  0.178E-03    3.89      14.1  T
   5    -23.5093185 -0.378963E-08  0.707E-04    3.89      35.4  T
   6    -23.5093185 -0.633275E-09  0.199E-04    3.89     125.6  T
     SCC iter.                  ...        0 min,  0.003 sec
     gradient                   ...        0 min,  0.001 sec
 * total energy  :   -23.2760869 Eh     change       -0.1498090E-03 Eh
   gradient norm :     0.0033692 Eh/α   predicted    -0.9005430E-04 ( -39.89%)
   displ. norm   :     0.2249112 α      lambda       -0.3068727E-03
   maximum displ.:     0.1489071 α      in ANC's #1, #3, #2, ...

........................................................................
.............................. CYCLE   23 ..............................
........................................................................

 iter      E             dE          RMSdq      gap      omega  full diag
   1    -23.5088296 -0.235088E+02  0.180E-01    3.71       0.0  T
   2    -23.5088361 -0.649348E-05  0.114E-01    3.72       1.0  T
   3    -23.5088390 -0.293984E-05  0.929E-03    3.73       2.7  T
   4    -23.5088394 -0.367407E-06  0.464E-03    3.73       5.4  T
   5    -23.5088394 -0.206566E-07  0.173E-03    3.73      14.4  T
   6    -23.5088394 -0.345063E-08  0.423E-04    3.73      59.0  T
   7    -23.5088394 -0.569475E-09  0.192E-04    3.73     130.3  T
     SCC iter.                  ...        0 min,  0.003 sec
     gradient                   ...        0 min,  0.001 sec
 * total energy  :   -23.2762551 Eh     change       -0.1681872E-03 Eh
   gradient norm :     0.0068696 Eh/α   predicted    -0.1611984E-03 (  -4.16%)
   displ. norm   :     0.0697972 α      lambda       -0.7294412E-04
   maximum displ.:     0.0509458 α      in ANC's #1, #3, #5, ...

........................................................................
.............................. CYCLE   24 ..............................
........................................................................

 iter      E             dE          RMSdq      gap      omega  full diag
   1    -23.5091472 -0.235091E+02  0.361E-02    3.77       0.0  T
   2    -23.5091473 -0.948799E-07  0.218E-02    3.77       1.1  T
   3    -23.5091473 -0.488775E-07  0.153E-03    3.77      16.4  T
   4    -23.5091473 -0.282302E-08  0.835E-04    3.77      29.9  T
   5    -23.5091473 -0.629363E-09  0.158E-04    3.77     158.3  T
     SCC iter.                  ...        0 min,  0.002 sec
     gradient                   ...        0 min,  0.001 sec
 * total energy  :   -23.2763211 Eh     change       -0.6601790E-04 Eh
   gradient norm :     0.0053416 Eh/α   predicted    -0.3664919E-04 ( -44.49%)
   displ. norm   :     0.2344379 α      lambda       -0.2138597E-03
   maximum displ.:     0.1597499 α      in ANC's #1, #3, #5, ...

........................................................................
.............................. CYCLE   25 ..............................
........................................................................

 iter      E             dE          RMSdq      gap      omega  full diag
   1    -23.5093782 -0.235094E+02  0.127E-01    3.89       0.0  T
   2    -23.5093795 -0.131750E-05  0.763E-02    3.89       1.0  T
   3    -23.5093801 -0.613876E-06  0.543E-03    3.88       4.6  T
   4    -23.5093802 -0.305262E-07  0.270E-03    3.88       9.3  T
   5    -23.5093802 -0.614498E-08  0.688E-04    3.88      36.3  T
   6    -23.5093802 -0.631815E-09  0.156E-04    3.88     159.9  T
     SCC iter.                  ...        0 min,  0.003 sec
     gradient                   ...        0 min,  0.001 sec
 * total energy  :   -23.2764705 Eh     change       -0.1493700E-03 Eh
   gradient norm :     0.0020742 Eh/α   predicted    -0.1128085E-03 ( -24.48%)
   displ. norm   :     0.2117573 α      lambda       -0.8903971E-04
   maximum displ.:     0.1490819 α      in ANC's #1, #3, #5, ...

........................................................................
.............................. CYCLE   26 ..............................
........................................................................

 iter      E             dE          RMSdq      gap      omega  full diag
   1    -23.5088853 -0.235089E+02  0.125E-01    3.85       0.0  T
   2    -23.5088869 -0.159003E-05  0.762E-02    3.86       1.0  T
   3    -23.5088878 -0.867613E-06  0.577E-03    3.86       4.3  T
   4    -23.5088878 -0.197718E-07  0.310E-03    3.86       8.1  T
   5    -23.5088878 -0.500538E-08  0.543E-04    3.86      46.1  T
   6    -23.5088878 -0.119442E-08  0.136E-04    3.86     183.9  T
     SCC iter.                  ...        0 min,  0.003 sec
     gradient                   ...        0 min,  0.001 sec
 * total energy  :   -23.2765257 Eh     change       -0.5521511E-04 Eh
   gradient norm :     0.0028488 Eh/α   predicted    -0.4651817E-04 ( -15.75%)
   displ. norm   :     0.0915289 α      lambda       -0.3668676E-04
   maximum displ.:     0.0674280 α      in ANC's #1, #3, #2, ...

........................................................................
.............................. CYCLE   27 ..............................
........................................................................

 iter      E             dE          RMSdq      gap      omega  full diag
   1    -23.5097718 -0.235098E+02  0.528E-02    3.89       0.0  T
   2    -23.5097721 -0.277168E-06  0.313E-02    3.89       1.0  T
   3    -23.5097722 -0.509812E-07  0.212E-03    3.89      11.8  T
   4    -23.5097722 -0.146468E-07  0.100E-03    3.89      24.9  T
   5    -23.5097722 -0.157177E-08  0.450E-04    3.89      55.5  T
   6    -23.5097722 -0.133003E-09  0.888E-05    3.89     281.7  T
     SCC iter.                  ...        0 min,  0.003 sec
     gradient                   ...        0 min,  0.001 sec
 * total energy  :   -23.2765482 Eh     change       -0.2246496E-04 Eh
   gradient norm :     0.0018175 Eh/α   predicted    -0.1849575E-04 ( -17.67%)
   displ. norm   :     0.0972256 α      lambda       -0.1381386E-04
   maximum displ.:     0.0724714 α      in ANC's #1, #3, #5, ...

........................................................................
.............................. CYCLE   28 ..............................
........................................................................

 iter      E             dE          RMSdq      gap      omega  full diag
   1    -23.5101701 -0.235102E+02  0.600E-02    3.86       0.0  T
   2    -23.5101704 -0.276942E-06  0.363E-02    3.86       1.0  T
   3    -23.5101705 -0.153803E-06  0.256E-03    3.86       9.8  T
   4    -23.5101705 -0.618407E-08  0.140E-03    3.86      17.9  T
   5    -23.5101705 -0.179782E-08  0.287E-04    3.86      87.2  T
   6    -23.5101705 -0.159719E-09  0.595E-05    3.86     420.5  T
     SCC iter.                  ...        0 min,  0.003 sec
     gradient                   ...        0 min,  0.001 sec
 * total energy  :   -23.2765592 Eh     change       -0.1105826E-04 Eh
   gradient norm :     0.0010576 Eh/α   predicted    -0.6937421E-05 ( -37.26%)
   displ. norm   :     0.0366331 α      lambda       -0.7403116E-05
   maximum displ.:     0.0241859 α      in ANC's #2, #1, #6, ...

........................................................................
.............................. CYCLE   29 ..............................
........................................................................

 iter      E             dE          RMSdq      gap      omega  full diag
   1    -23.5103646 -0.235104E+02  0.232E-02    3.89       0.0  T
   2    -23.5103647 -0.975141E-07  0.141E-02    3.89       1.8  T
   3    -23.5103647 -0.253442E-07  0.131E-03    3.88      19.1  T
   4    -23.5103647 -0.495087E-08  0.671E-04    3.88      37.3  T
   5    -23.5103647 -0.458751E-09  0.212E-04    3.88     118.0  T
     SCC iter.                  ...        0 min,  0.002 sec
     gradient                   ...        0 min,  0.001 sec
 * total energy  :   -23.2765670 Eh     change       -0.7727770E-05 Eh
   gradient norm :     0.0014049 Eh/α   predicted    -0.3705828E-05 ( -52.05%)
   displ. norm   :     0.0581729 α      lambda       -0.8737346E-05
   maximum displ.:     0.0350820 α      in ANC's #2, #1, #6, ...

........................................................................
.............................. CYCLE   30 ..............................
........................................................................

 iter      E             dE          RMSdq      gap      omega  full diag
   1    -23.5099830 -0.235100E+02  0.332E-02    3.89       0.0  T
   2    -23.5099831 -0.952982E-07  0.199E-02    3.88       1.3  T
   3    -23.5099831 -0.331644E-07  0.142E-03    3.88      17.6  T
   4    -23.5099831 -0.466768E-08  0.762E-04    3.88      32.8  T
   5    -23.5099831 -0.577941E-09  0.187E-04    3.88     133.5  T
     SCC iter.                  ...        0 min,  0.002 sec
     gradient                   ...        0 min,  0.001 sec
 * total energy  :   -23.2765746 Eh     change       -0.7669871E-05 Eh
   gradient norm :     0.0008464 Eh/α   predicted    -0.4374923E-05 ( -42.96%)
   displ. norm   :     0.0280488 α      lambda       -0.2389484E-05
   maximum displ.:     0.0183263 α      in ANC's #3, #2, #6, ...

........................................................................
.............................. CYCLE   31 ..............................
........................................................................

 iter      E             dE          RMSdq      gap      omega  full diag
   1    -23.5101444 -0.235101E+02  0.158E-02    3.88       0.0  T
   2    -23.5101445 -0.506327E-07  0.995E-03    3.87       2.5  T
   3    -23.5101445 -0.239446E-07  0.866E-04    3.88      28.9  T
   4    -23.5101445 -0.285729E-08  0.447E-04    3.87      55.9  T
     SCC iter.                  ...        0 min,  0.002 sec
     gradient                   ...        0 min,  0.001 sec
 * total energy  :   -23.2765764 Eh     change       -0.1781155E-05 Eh
   gradient norm :     0.0005769 Eh/α   predicted    -0.1193586E-05 ( -32.99%)
   displ. norm   :     0.0121124 α      lambda       -0.8379135E-06
   maximum displ.:     0.0103537 α      in ANC's #1, #3, #2, ...

   *** GEOMETRY OPTIMIZATION CONVERGED AFTER 31 ITERATIONS ***

------------------------------------------------------------------------
 total energy gain   :        -0.0297909 Eh      -18.6941 kcal/mol
 total RMSD          :         0.6702773 a0        0.3547 Å
 total power (kW/mol):        -2.5230988 (step) -355.5047 (real)
------------------------------------------------------------------------

 ANCopt (total)                0 d,  0 h,  0 min,  0.220 sec
 optimizer setup                ...        0 min,  0.000 sec (  0.059%)
 model hessian                  ...        0 min,  0.010 sec (  4.669%)
 ANC generation                 ...        0 min,  0.001 sec (  0.297%)
 coordinate transformation      ...        0 min,  0.000 sec (  0.055%)
 single point calculation       ...        0 min,  0.145 sec ( 65.930%)
 optimization log               ...        0 min,  0.003 sec (  1.139%)
 hessian update                 ...        0 min,  0.000 sec (  0.111%)
 rational function              ...        0 min,  0.059 sec ( 26.980%)

================
 final structure:
================
16
 xtb: 6.6.1 (8d0f1dd)
O            2.33596228440911       -1.21769115943050        0.80387963281044
O            1.60359685079815       -0.01737689730860        0.54307239005474
C            0.67994756064895       -0.24400517049514       -0.49946335054979
C           -0.46570980214869       -1.17833912096241       -0.07559062984796
C           -1.50775290732958       -0.26743181979461        0.44575878550084
C           -1.16698659402143        1.15487471554924        0.22277029353386
C            0.00919913854714        1.10910887333621       -0.75903991035415
H            3.06973059872568       -0.88780791380690        1.33718345369077
H            1.22331993383735       -0.62491797176455       -1.37406939086202
H           -0.11737839510966       -1.90242473794209        0.66745298166162
H           -0.81669047730708       -1.75795368280487       -0.93975699431619
H           -2.34635198790466       -0.59508244437725        1.02744723985944
H           -0.85765500066960        1.63631677962073        1.16162001992085
H           -2.00879476658609        1.73756727531849       -0.16444209446108
H            0.71621217145024        1.92253911109217       -0.60977871439877
H           -0.35034860733990        1.13282416377023       -1.78704371224267

 Bond Distances (Angstroems)
 ---------------------------
O1-O2=1.4301         O1-H8=0.9652         O2-O1=1.4301         O2-C3=1.4112         C3-O2=1.4112         C3-C4=1.5379         
C3-C7=1.5324         C3-H9=1.0979         C4-C3=1.5379         C4-C5=1.4790         C4-H10=1.0944        C4-H11=1.0981        
C5-C4=1.4790         C5-C6=1.4795         C5-H12=1.0719        C6-C5=1.4795         C6-C7=1.5328         C6-H13=1.0995        
C6-H14=1.0946        C7-C3=1.5324         C7-C6=1.5328         C7-H15=1.0880        C7-H16=1.0893        H8-O1=0.9652         
H9-C3=1.0979         H10-C4=1.0944        H11-C4=1.0981        H12-C5=1.0719        H13-C6=1.0995        H14-C6=1.0946        
H15-C7=1.0880        H16-C7=1.0893        
 C  H  Rav=1.0917 sigma=0.0084  Rmin=1.0719  Rmax=1.0995     8
 C  C  Rav=1.5123 sigma=0.0271  Rmin=1.4790  Rmax=1.5379     5
 O  H  Rav=0.9652 sigma=0.0000  Rmin=0.9652  Rmax=0.9652     1
 O  C  Rav=1.4112 sigma=0.0000  Rmin=1.4112  Rmax=1.4112     1
 O  O  Rav=1.4301 sigma=0.0000  Rmin=1.4301  Rmax=1.4301     1

 selected bond angles (degree)
 --------------------
H8-O1-O2=101.73                C3-O2-O1=109.58                C4-C3-O2=112.43                C7-C3-O2=105.65                
C7-C3-C4=104.90                H9-C3-O2=108.68                H9-C3-C4=112.18                H9-C3-C7=112.83                
C5-C4-C3=104.35                H10-C4-C3=110.61               H10-C4-C5=113.10               H11-C4-C3=109.99               
H11-C4-C5=112.17               H11-C4-H10=106.67              C6-C5-C4=112.13                H12-C5-C4=123.66               
H12-C5-C6=123.77               C7-C6-C5=104.16                H13-C6-C5=110.92               H13-C6-C7=110.13               
H14-C6-C5=112.83               H14-C6-C7=112.30               H14-C6-H13=106.58              C6-C7-C3=104.70                
H15-C7-C3=110.64               H15-C7-C6=112.86               H16-C7-C3=108.88               H16-C7-C6=110.52               
H16-C7-H15=109.13              

 selected dihedral angles (degree)
 ---------------------------------
C3-O2-O1-H8=165.36            C4-C3-O2-O1= 69.39            C7-C3-O2-O1=183.25            H9-C3-O2-O1=304.59            
C5-C4-C3-O2= 90.46            C5-C4-C3-C7=336.14            C5-C4-C3-H9=213.32            H10-C4-C3-O2=328.53           
H10-C4-C3-C7=214.21           H10-C4-C3-H9= 91.38           H11-C4-C3-O2=210.96           H11-C4-C3-C7= 96.64           
H11-C4-C3-H9=333.81           C6-C5-C4-C3=  7.11            C6-C5-C4-H10=127.38           C6-C5-C4-H11=248.08           
H12-C5-C4-C3=194.49           H12-C5-C4-H10=314.77          H12-C5-C4-H11= 75.47          C7-C6-C5-C4= 12.49            
C7-C6-C5-H12=185.09           H13-C6-C5-C4=254.04           H13-C6-C5-H12= 66.64          H14-C6-C5-C4=134.54           
H14-C6-C5-H12=307.14          C6-C7-C3-O2=272.72            C6-C7-C3-C4= 31.71            C6-C7-C3-H9=154.11            
H15-C7-C3-O2= 34.59           H15-C7-C3-C4=153.57           H15-C7-C3-H9=275.97           H16-C7-C3-O2=154.51           
H16-C7-C3-C4=273.49           H16-C7-C3-H9= 35.89           C3-C7-C6-C5=333.00            C3-C7-C6-H13= 91.99           
C3-C7-C6-H14=210.60           H15-C7-C6-C5=212.60           H15-C7-C6-H13=331.59          H15-C7-C6-H14= 90.19          
H16-C7-C6-C5= 90.09           H16-C7-C6-H13=209.08          H16-C7-C6-H14=327.68          
           -------------------------------------------------
          |                Final Singlepoint                |
           -------------------------------------------------

          ...................................................
          :                      SETUP                      :
          :.................................................:
          :  # basis functions                  37          :
          :  # atomic orbitals                  37          :
          :  # shells                           23          :
          :  # electrons                        41          :
          :  max. iterations                   250          :
          :  Hamiltonian                  GFN2-xTB          :
          :  restarted?                      false          :
          :  GBSA solvation                  false          :
          :  PC potential                    false          :
          :  electronic temp.          300.0000000     K    :
          :  accuracy                    1.0000000          :
          :  -> integral cutoff          0.2500000E+02      :
          :  -> integral neglect         0.1000000E-07      :
          :  -> SCF convergence          0.1000000E-05 Eh   :
          :  -> wf. convergence          0.1000000E-03 e    :
          :  Broyden damping             0.4000000          :
          ...................................................

 iter      E             dE          RMSdq      gap      omega  full diag
   1    -23.5101445 -0.235101E+02  0.127E-04    3.87       0.0  T
   2    -23.5101445 -0.272600E-10  0.757E-05    3.87     330.3  T
   3    -23.5101445 -0.324718E-11  0.353E-05    3.87     709.0  T

   *** convergence criteria satisfied after 3 iterations ***

         #    Occupation            Energy/Eh            Energy/eV
      -------------------------------------------------------------
         1        2.0000           -0.7148156             -19.4511
       ...           ...                  ...                  ...
        15        2.0000           -0.4561716             -12.4131
        16        2.0000           -0.4501146             -12.2482
        17        2.0000           -0.4480907             -12.1932
        18        2.0000           -0.4447595             -12.1025
        19        2.0000           -0.4431381             -12.0584
        20        2.0000           -0.3996210             -10.8742
        21        1.0000           -0.2893633              -7.8740 (HOMO)
        22                         -0.1469663              -3.9992 (LUMO)
        23                          0.0538237               1.4646
        24                          0.0707757               1.9259
        25                          0.1006996               2.7402
        26                          0.1087956               2.9605
       ...                                ...                  ...
        37                          0.3954268              10.7601
      -------------------------------------------------------------
                  HL-Gap            0.1423970 Eh            3.8748 eV
             Fermi-level           -0.2813285 Eh           -7.6553 eV

 SCC (total)                   0 d,  0 h,  0 min,  0.004 sec
 SCC setup                      ...        0 min,  0.000 sec (  2.403%)
 Dispersion                     ...        0 min,  0.000 sec (  1.089%)
 classical contributions        ...        0 min,  0.000 sec (  0.293%)
 integral evaluation            ...        0 min,  0.000 sec ( 10.867%)
 iterations                     ...        0 min,  0.002 sec ( 49.795%)
 molecular gradient             ...        0 min,  0.001 sec ( 32.211%)
 printout                       ...        0 min,  0.000 sec (  3.017%)

         :::::::::::::::::::::::::::::::::::::::::::::::::::::
         ::                     SUMMARY                     ::
         :::::::::::::::::::::::::::::::::::::::::::::::::::::
         :: total energy             -23.276576421394 Eh    ::
         :: gradient norm              0.000577471459 Eh/a0 ::
         :: HOMO-LUMO gap              3.874819579675 eV    ::
         ::.................................................::
         :: SCC energy               -23.510144496897 Eh    ::
         :: -> isotropic ES            0.030263808968 Eh    ::
         :: -> anisotropic ES         -0.004086453792 Eh    ::
         :: -> anisotropic XC         -0.000223662083 Eh    ::
         :: -> dispersion             -0.009792229924 Eh    ::
         :: repulsion energy           0.233542028493 Eh    ::
         :: add. restraining           0.000000000000 Eh    ::
         :: total charge               0.000000000000 e     ::
         :::::::::::::::::::::::::::::::::::::::::::::::::::::

           -------------------------------------------------
          |                Property Printout                |
           -------------------------------------------------

    * Orbital Energies and Occupations

         #    Occupation            Energy/Eh            Energy/eV
      -------------------------------------------------------------
         1        2.0000           -0.7148156             -19.4511
       ...           ...                  ...                  ...
         9        2.0000           -0.5485625             -14.9271
        10        2.0000           -0.5389252             -14.6649
        11        2.0000           -0.5139626             -13.9856
        12        2.0000           -0.5106997             -13.8968
        13        2.0000           -0.4991421             -13.5823
        14        2.0000           -0.4715104             -12.8304
        15        2.0000           -0.4561716             -12.4131
        16        2.0000           -0.4501146             -12.2482
        17        2.0000           -0.4480907             -12.1932
        18        2.0000           -0.4447595             -12.1025
        19        2.0000           -0.4431381             -12.0584
        20        2.0000           -0.3996210             -10.8742
        21        1.0000           -0.2893633              -7.8740 (HOMO)
        22                         -0.1469663              -3.9992 (LUMO)
        23                          0.0538237               1.4646
        24                          0.0707757               1.9259
        25                          0.1006996               2.7402
        26                          0.1087956               2.9605
        27                          0.1177512               3.2042
        28                          0.1337077               3.6384
        29                          0.1451243               3.9490
        30                          0.1592970               4.3347
        31                          0.1876625               5.1066
        32                          0.2144227               5.8347
       ...                                ...                  ...
        37                          0.3954268              10.7601
      -------------------------------------------------------------
                  HL-Gap            0.1423970 Eh            3.8748 eV
             Fermi-level           -0.2813285 Eh           -7.6553 eV

     #   Z          covCN         q      C6AA      α(0)
     1   8 O        1.732    -0.333    19.567     5.973
     2   8 O        1.776    -0.215    17.554     5.658
     3   6 C        3.756     0.126    18.584     6.146
     4   6 C        3.818    -0.062    21.671     6.625
     5   6 C        2.926    -0.076    29.902     8.968
     6   6 C        3.819    -0.052    21.492     6.598
     7   6 C        3.833    -0.065    21.723     6.631
     8   1 H        0.805     0.317     0.672     1.287
     9   1 H        0.924     0.027     2.629     2.536
    10   1 H        0.924     0.066     2.129     2.282
    11   1 H        0.923     0.045     2.380     2.413
    12   1 H        0.926     0.027     2.629     2.536
    13   1 H        0.923     0.055     2.255     2.348
    14   1 H        0.924     0.044     2.401     2.423
    15   1 H        0.925     0.050     2.315     2.379
    16   1 H        0.925     0.045     2.386     2.415

 Mol. C6AA /au·bohr⁶  :       2061.838887
 Mol. C8AA /au·bohr⁸  :      44793.609905
 Mol. α(0) /au        :         67.217517


Wiberg/Mayer (AO) data.
largest (>0.10) Wiberg bond orders for each atom

 ---------------------------------------------------------------------------
     #   Z sym  total        # sym  WBO       # sym  WBO       # sym  WBO
 ---------------------------------------------------------------------------
     1   8 O    1.906 --     2 O    0.970     8 H    0.893
     2   8 O    2.007 --     3 C    0.973     1 O    0.970
     3   6 C    3.939 --     4 C    0.981     7 C    0.978     2 O    0.973
                             9 H    0.964
     4   6 C    3.997 --     5 C    1.076     3 C    0.981    10 H    0.946
                            11 H    0.940
     5   6 C    3.287 --     4 C    1.076     6 C    1.076    12 H    0.976
     6   6 C    3.998 --     5 C    1.076     7 C    1.002    14 H    0.955
                            13 H    0.936
     7   6 C    3.995 --     6 C    1.002     3 C    0.978    16 H    0.977
                            15 H    0.977
     8   1 H    0.899 --     1 O    0.893
     9   1 H    0.999 --     3 C    0.964
    10   1 H    0.995 --     4 C    0.946
    11   1 H    0.996 --     4 C    0.940
    12   1 H    0.999 --     5 C    0.976
    13   1 H    0.995 --     6 C    0.936
    14   1 H    0.997 --     6 C    0.955
    15   1 H    0.997 --     7 C    0.977
    16   1 H    0.998 --     7 C    0.977
 ---------------------------------------------------------------------------

Topologies differ in total number of bonds
Writing topology from bond orders to xtbtopo.mol

molecular dipole:
                 x           y           z       tot (Debye)
 q only:       -0.092       0.251      -0.144
   full:        0.093       0.281      -0.116       0.807
molecular quadrupole (traceless):
                xx          xy          yy          xz          yz          zz
 q only:        1.216      -0.050      -1.157       2.113      -0.257      -0.060
  q+dip:        1.989       0.761      -2.756       2.267       0.113       0.767
   full:        2.078       0.289      -2.431       2.808      -0.026       0.353

           -------------------------------------------------
          |                Geometry Summary                 |
           -------------------------------------------------

      molecular mass/u    :      101.1239561
   center of mass at/Å    :        0.3173223      -0.1206182       0.1272667
  moments of inertia/u·Å² :        0.9971524E+02   0.2499585E+03   0.2915727E+03
rotational constants/cm⁻¹ :        0.1690577E+00   0.6744172E-01   0.5781623E-01

 * 16 selected distances

     #   Z          #   Z                                           value/Å
     1   8 O        2   8 O                                       1.4300819
     2   8 O        3   6 C                                       1.4111589
     3   6 C        4   6 C                                       1.5379139 (max)
     4   6 C        5   6 C                                       1.4789900
     5   6 C        6   6 C                                       1.4794600
     3   6 C        7   6 C                                       1.5323842
     6   6 C        7   6 C                                       1.5327945
     1   8 O        8   1 H                                       0.9652212 (min)
     3   6 C        9   1 H                                       1.0978543
     4   6 C       10   1 H                                       1.0944171
     4   6 C       11   1 H                                       1.0981458
     5   6 C       12   1 H                                       1.0718979
     6   6 C       13   1 H                                       1.0995051
     6   6 C       14   1 H                                       1.0945800
     7   6 C       15   1 H                                       1.0880328
     7   6 C       16   1 H                                       1.0893250

 * 5 distinct bonds (by element types)

   Z      Z             #   av. dist./Å        max./Å        min./Å
   1 H    6 C           8     1.0917197     1.0995051     1.0718979
   6 C    6 C           5     1.5123085     1.5379139     1.4789900
   1 H    8 O           1     0.9652212     0.9652212     0.9652212
   6 C    8 O           1     1.4111589     1.4111589     1.4111589
   8 O    8 O           1     1.4300819     1.4300819     1.4300819


optimized geometry written to: xtbopt.xyz


           -------------------------------------------------
          | TOTAL ENERGY              -23.276576421394 Eh   |
          | GRADIENT NORM               0.000577471459 Eh/α |
          | HOMO-LUMO GAP               3.874819579675 eV   |
           -------------------------------------------------

------------------------------------------------------------------------
 * finished run on 2025/05/23 at 13:07:09.585     
------------------------------------------------------------------------
 total:
 * wall-time:     0 d,  0 h,  0 min,  0.243 sec
 *  cpu-time:     0 d,  0 h,  0 min,  1.501 sec
 * ratio c/w:     6.184 speedup
 SCF:
 * wall-time:     0 d,  0 h,  0 min,  0.010 sec
 *  cpu-time:     0 d,  0 h,  0 min,  0.069 sec
 * ratio c/w:     6.946 speedup
 ANC optimizer:
 * wall-time:     0 d,  0 h,  0 min,  0.225 sec
 *  cpu-time:     0 d,  0 h,  0 min,  1.379 sec
 * ratio c/w:     6.142 speedup

