
                                 *****************
                                 * O   R   C   A *
                                 *****************

                                            #,                                       
                                            ###                                      
                                            ####                                     
                                            #####                                    
                                            ######                                   
                                           ########,                                 
                                     ,,################,,,,,                         
                               ,,#################################,,                 
                          ,,##########################################,,             
                       ,#########################################, ''#####,          
                    ,#############################################,,   '####,        
                  ,##################################################,,,,####,       
                ,###########''''           ''''###############################       
              ,#####''   ,,,,##########,,,,          '''####'''          '####       
            ,##' ,,,,###########################,,,                        '##       
           ' ,,###''''                  '''############,,,                           
         ,,##''                                '''############,,,,        ,,,,,,###''
      ,#''                                            '''#######################'''  
     '                                                          ''''####''''         
             ,#######,   #######,   ,#######,      ##                                
            ,#'     '#,  ##    ##  ,#'     '#,    #''#        ######   ,####,        
            ##       ##  ##   ,#'  ##            #'  '#       #        #'  '#        
            ##       ##  #######   ##           ,######,      #####,   #    #        
            '#,     ,#'  ##    ##  '#,     ,#' ,#      #,         ##   #,  ,#        
             '#######'   ##     ##  '#######'  #'      '#     #####' # '####'        



                  #######################################################
                  #                        -***-                        #
                  #          Department of theory and spectroscopy      #
                  #    Directorship and core code : Frank Neese         #
                  #        Max Planck Institute fuer Kohlenforschung    #
                  #                Kaiser Wilhelm Platz 1               #
                  #                 D-45470 Muelheim/Ruhr               #
                  #                      Germany                        #
                  #                                                     #
                  #                  All rights reserved                #
                  #                        -***-                        #
                  #######################################################


                         Program Version 5.0.4 -  RELEASE  -


 With contributions from (in alphabetic order):
   Daniel Aravena         : Magnetic Suceptibility
   Michael Atanasov       : Ab Initio Ligand Field Theory (pilot matlab implementation)
   Alexander A. Auer      : GIAO ZORA, VPT2 properties, NMR spectrum
   Ute Becker             : Parallelization
   Giovanni Bistoni       : ED, misc. LED, open-shell LED, HFLD
   Martin Brehm           : Molecular dynamics
   Dmytro Bykov           : SCF Hessian
   Vijay G. Chilkuri      : MRCI spin determinant printing, contributions to CSF-ICE
   Dipayan Datta          : RHF DLPNO-CCSD density
   Achintya Kumar Dutta   : EOM-CC, STEOM-CC
   Dmitry Ganyushin       : Spin-Orbit,Spin-Spin,Magnetic field MRCI
   Miquel Garcia          : C-PCM and meta-GGA Hessian, CC/C-PCM, Gaussian charge scheme
   Yang Guo               : DLPNO-NEVPT2, F12-NEVPT2, CIM, IAO-localization
   Andreas Hansen         : Spin unrestricted coupled pair/coupled cluster methods
   Benjamin Helmich-Paris : MC-RPA, TRAH-SCF, COSX integrals
   Lee Huntington         : MR-EOM, pCC
   Robert Izsak           : Overlap fitted RIJCOSX, COSX-SCS-MP3, EOM
   Marcus Kettner         : VPT2
   Christian Kollmar      : KDIIS, OOCD, Brueckner-CCSD(T), CCSD density, CASPT2, CASPT2-K
   Simone Kossmann        : Meta GGA functionals, TD-DFT gradient, OOMP2, MP2 Hessian
   Martin Krupicka        : Initial AUTO-CI
   Lucas Lang             : DCDCAS
   Marvin Lechner         : AUTO-CI (C++ implementation), FIC-MRCC
   Dagmar Lenk            : GEPOL surface, SMD
   Dimitrios Liakos       : Extrapolation schemes; Compound Job, initial MDCI parallelization
   Dimitrios Manganas     : Further ROCIS development; embedding schemes
   Dimitrios Pantazis     : SARC Basis sets
   Anastasios Papadopoulos: AUTO-CI, single reference methods and gradients
   Taras Petrenko         : DFT Hessian,TD-DFT gradient, ASA, ECA, R-Raman, ABS, FL, XAS/XES, NRVS
   Peter Pinski           : DLPNO-MP2, DLPNO-MP2 Gradient
   Christoph Reimann      : Effective Core Potentials
   Marius Retegan         : Local ZFS, SOC
   Christoph Riplinger    : Optimizer, TS searches, QM/MM, DLPNO-CCSD(T), (RO)-DLPNO pert. Triples
   Tobias Risthaus        : Range-separated hybrids, TD-DFT gradient, RPA, STAB
   Michael Roemelt        : Original ROCIS implementation
   Masaaki Saitow         : Open-shell DLPNO-CCSD energy and density
   Barbara Sandhoefer     : DKH picture change effects
   Avijit Sen             : IP-ROCIS
   Kantharuban Sivalingam : CASSCF convergence, NEVPT2, FIC-MRCI
   Bernardo de Souza      : ESD, SOC TD-DFT
   Georgi Stoychev        : AutoAux, RI-MP2 NMR, DLPNO-MP2 response
   Willem Van den Heuvel  : Paramagnetic NMR
   Boris Wezisla          : Elementary symmetry handling
   Frank Wennmohs         : Technical directorship


 We gratefully acknowledge several colleagues who have allowed us to
 interface, adapt or use parts of their codes:
   Stefan Grimme, W. Hujo, H. Kruse, P. Pracht,  : VdW corrections, initial TS optimization,
                  C. Bannwarth, S. Ehlert          DFT functionals, gCP, sTDA/sTD-DF
   Ed Valeev, F. Pavosevic, A. Kumar             : LibInt (2-el integral package), F12 methods
   Garnet Chan, S. Sharma, J. Yang, R. Olivares  : DMRG
   Ulf Ekstrom                                   : XCFun DFT Library
   Mihaly Kallay                                 : mrcc  (arbitrary order and MRCC methods)
   Jiri Pittner, Ondrej Demel                    : Mk-CCSD
   Frank Weinhold                                : gennbo (NPA and NBO analysis)
   Christopher J. Cramer and Donald G. Truhlar   : smd solvation model
   Lars Goerigk                                  : TD-DFT with DH, B97 family of functionals
   V. Asgeirsson, H. Jonsson                     : NEB implementation
   FAccTs GmbH                                   : IRC, NEB, NEB-TS, DLPNO-Multilevel, CI-OPT
                                                   MM, QMMM, 2- and 3-layer-ONIOM, Crystal-QMMM,
                                                   LR-CPCM, SF, NACMEs, symmetry and pop. for TD-DFT,
                                                   nearIR, NL-DFT gradient (VV10), updates on ESD,
                                                   ML-optimized integration grids
   S Lehtola, MJT Oliveira, MAL Marques          : LibXC Library
   Liviu Ungur et al                             : ANISO software


 Your calculation uses the libint2 library for the computation of 2-el integrals
 For citations please refer to: http://libint.valeyev.net

 Your ORCA version has been built with support for libXC version: 5.1.0
 For citations please refer to: https://tddft.org/programs/libxc/

 This ORCA versions uses:
   CBLAS   interface :  Fast vector & matrix operations
   LAPACKE interface :  Fast linear algebra routines
   SCALAPACK package :  Parallel linear algebra routines
   Shared memory     :  Shared parallel matrices
   BLAS/LAPACK       :  OpenBLAS 0.3.15  USE64BITINT DYNAMIC_ARCH NO_AFFINITY SkylakeX SINGLE_THREADED
        Core in use  :  SkylakeX
   Copyright (c) 2011-2014, The OpenBLAS Project


Your calculation utilizes the atom-pairwise dispersion correction
with the Becke-Johnson damping scheme (D3BJ)
Cite in your paper:
S.Grimme, S.Ehrlich, L.Goerigk, J Comput Chem, (2011), 32, 1456–1465 
S.Grimme, J.Antony, S.Ehrlich and H.Krieg, J.Chem.Phys., 132, (2010), 154104 
   

================================================================================

----- Orbital basis set information -----
Your calculation utilizes the basis: def2-SVP
   F. Weigend and R. Ahlrichs, Phys. Chem. Chem. Phys. 7, 3297 (2005).

----- AuxJ basis set information -----
Your calculation utilizes the auxiliary basis: def2/J
   F. Weigend, Phys. Chem. Chem. Phys. 8, 1057 (2006).

================================================================================
                                        WARNINGS
                       Please study these warnings very carefully!
================================================================================


WARNING: your system is open-shell and RHF/RKS was chosen
  ===> : WILL SWITCH to UHF/UKS


WARNING: Geometry Optimization
  ===> : Switching off AutoStart
         For restart on a previous wavefunction, please use MOREAD

INFO   : the flag for use of the SHARK integral package has been found!

================================================================================
                                       INPUT FILE
================================================================================
NAME = r0_C5H9O2_conf1_opt_orca.inp
|  1> ! LooseOpt PBE0 RIJCOSX D3BJ def2-SVP def2/J 
|  2> %geom MaxIter 10 end
|  3> %output 
|  4> xyzfile=True 
|  5> end 
|  6> %scf 
|  7> maxiter 250 
|  8> end
|  9> %output
| 10> Print[P_Hirshfeld] = 1
| 11> end
| 12> % maxcore
| 13> 4000
| 14> %pal nprocs 8
| 15> end
| 16> *xyz 0 2
| 17> O    2.33596228  -1.21769116   0.80387963 
| 18> O    1.60359685  -0.01737690   0.54307239 
| 19> C    0.67994756  -0.24400517  -0.49946335 
| 20> C   -0.46570980  -1.17833912  -0.07559063 
| 21> C   -1.50775291  -0.26743182   0.44575879 
| 22> C   -1.16698659   1.15487472   0.22277029 
| 23> C    0.00919914   1.10910887  -0.75903991 
| 24> H    3.06973060  -0.88780791   1.33718345 
| 25> H    1.22331993  -0.62491797  -1.37406939 
| 26> H   -0.11737840  -1.90242474   0.66745298 
| 27> H   -0.81669048  -1.75795368  -0.93975699 
| 28> H   -2.34635199  -0.59508244   1.02744724 
| 29> H   -0.85765500   1.63631678   1.16162002 
| 30> H   -2.00879477   1.73756728  -0.16444209 
| 31> H    0.71621217   1.92253911  -0.60977871 
| 32> H   -0.35034861   1.13282416  -1.78704371 
| 33> *
| 34> 
| 35>                          ****END OF INPUT****
================================================================================

                       *****************************
                       * Geometry Optimization Run *
                       *****************************

Geometry optimization settings:
Update method            Update   .... BFGS
Choice of coordinates    CoordSys .... Z-matrix Internals
Initial Hessian          InHess   .... Almoef's Model

Convergence Tolerances:
Energy Change            TolE     ....  3.0000e-05 Eh
Max. Gradient            TolMAXG  ....  2.0000e-03 Eh/bohr
RMS Gradient             TolRMSG  ....  5.0000e-04 Eh/bohr
Max. Displacement        TolMAXD  ....  1.0000e-02 bohr
RMS Displacement         TolRMSD  ....  7.0000e-03 bohr
Strict Convergence                ....  False
------------------------------------------------------------------------------
                        ORCA OPTIMIZATION COORDINATE SETUP
------------------------------------------------------------------------------

The optimization will be done in new redundant internal coordinates
Making redundant internal coordinates   ...  (new redundants) done
Evaluating the initial hessian          ...  (Almloef) done
Evaluating the coordinates              ...  done
Calculating the B-matrix                .... done
Calculating the G-matrix                .... done
Diagonalizing the G-matrix              .... done
The first mode is                       ....   46
The number of degrees of freedom        ....   42

    -----------------------------------------------------------------
                    Redundant Internal Coordinates


    -----------------------------------------------------------------
         Definition                    Initial Value    Approx d2E/dq
    -----------------------------------------------------------------
      1. B(O   1,O   0)                  1.4301         0.432578   
      2. B(C   2,O   1)                  1.4112         0.517747   
      3. B(C   3,C   2)                  1.5379         0.362870   
      4. B(C   4,C   3)                  1.4790         0.450568   
      5. B(C   5,C   4)                  1.4795         0.449791   
      6. B(C   6,C   5)                  1.5328         0.369759   
      7. B(C   6,C   2)                  1.5324         0.370317   
      8. B(H   7,O   0)                  0.9652         0.510078   
      9. B(H   8,C   2)                  1.0979         0.349858   
     10. B(H   9,C   3)                  1.0944         0.354304   
     11. B(H  10,C   3)                  1.0981         0.349484   
     12. B(H  11,C   4)                  1.0719         0.384861   
     13. B(H  12,C   5)                  1.0995         0.347743   
     14. B(H  13,C   5)                  1.0946         0.354092   
     15. B(H  14,C   6)                  1.0880         0.362712   
     16. B(H  15,C   6)                  1.0893         0.360994   
     17. A(O   1,O   0,H   7)          101.7253         0.344833   
     18. A(O   0,O   1,C   2)          109.5807         0.386828   
     19. A(O   1,C   2,H   8)          108.6820         0.338639   
     20. A(C   3,C   2,H   8)          112.1777         0.321254   
     21. A(O   1,C   2,C   6)          105.6544         0.381374   
     22. A(C   3,C   2,C   6)          104.8965         0.361012   
     23. A(O   1,C   2,C   3)          112.4290         0.380033   
     24. A(C   6,C   2,H   8)          112.8342         0.322324   
     25. A(C   2,C   3,H   9)          110.6085         0.321918   
     26. A(C   4,C   3,H   9)          113.1045         0.333614   
     27. A(C   4,C   3,H  10)          112.1658         0.332857   
     28. A(H   9,C   3,H  10)          106.6663         0.288742   
     29. A(C   2,C   3,C   4)          104.3495         0.373361   
     30. A(C   2,C   3,H  10)          109.9906         0.321197   
     31. A(C   5,C   4,H  11)          123.7698         0.338140   
     32. A(C   3,C   4,H  11)          123.6588         0.338238   
     33. A(C   3,C   4,C   5)          112.1289         0.387523   
     34. A(C   4,C   5,C   6)          104.1572         0.374462   
     35. A(H  12,C   5,H  13)          106.5789         0.288489   
     36. A(C   6,C   5,H  13)          112.2994         0.322880   
     37. A(C   4,C   5,H  13)          112.8274         0.333486   
     38. A(C   6,C   5,H  12)          110.1289         0.321925   
     39. A(C   4,C   5,H  12)          110.9196         0.332486   
     40. A(H  14,C   6,H  15)          109.1271         0.291283   
     41. A(C   5,C   6,H  15)          110.5212         0.323904   
     42. A(C   2,C   6,H  15)          108.8781         0.323985   
     43. A(C   5,C   6,H  14)          112.8572         0.324157   
     44. A(C   2,C   6,H  14)          110.6393         0.324237   
     45. A(C   2,C   6,C   5)          104.6990         0.362173   
     46. D(C   2,O   1,O   0,H   7)    165.3584         0.013870   
     47. D(C   6,C   2,O   1,O   0)   -176.7504         0.021245   
     48. D(C   3,C   2,O   1,O   0)     69.3902         0.021245   
     49. D(H   8,C   2,O   1,O   0)    -55.4057         0.021245   
     50. D(H  10,C   3,C   2,H   8)    -26.1876         0.010552   
     51. D(C   4,C   3,C   2,H   8)   -146.6829         0.010552   
     52. D(C   4,C   3,C   2,C   6)    -23.8574         0.010552   
     53. D(H   9,C   3,C   2,H   8)     91.3835         0.010552   
     54. D(H  10,C   3,C   2,C   6)     96.6379         0.010552   
     55. D(H  10,C   3,C   2,O   1)   -149.0397         0.010552   
     56. D(C   4,C   3,C   2,O   1)     90.4649         0.010552   
     57. D(H   9,C   3,C   2,O   1)    -31.4687         0.010552   
     58. D(H   9,C   3,C   2,C   6)   -145.7911         0.010552   
     59. D(C   5,C   4,C   3,H   9)    127.3793         0.014971   
     60. D(C   5,C   4,C   3,C   2)      7.1053         0.014971   
     61. D(H  11,C   4,C   3,H  10)     75.4656         0.014971   
     62. D(H  11,C   4,C   3,H   9)    -45.2313         0.014971   
     63. D(H  11,C   4,C   3,C   2)   -165.5053         0.014971   
     64. D(C   5,C   4,C   3,H  10)   -111.9238         0.014971   
     65. D(H  13,C   5,C   4,H  11)    -52.8555         0.014920   
     66. D(H  13,C   5,C   4,C   3)    134.5435         0.014920   
     67. D(H  12,C   5,C   4,H  11)     66.6383         0.014920   
     68. D(H  12,C   5,C   4,C   3)   -105.9627         0.014920   
     69. D(C   6,C   5,C   4,C   3)     12.4866         0.014920   
     70. D(C   6,C   5,C   4,H  11)   -174.9124         0.014920   
     71. D(H  14,C   6,C   2,C   3)    153.5708         0.010961   
     72. D(H  14,C   6,C   2,O   1)     34.5871         0.010961   
     73. D(C   5,C   6,C   2,H   8)    154.1056         0.010961   
     74. D(C   5,C   6,C   2,C   3)     31.7053         0.010961   
     75. D(H  14,C   6,C   2,H   8)    -84.0288         0.010961   
     76. D(C   5,C   6,C   2,O   1)    -87.2784         0.010961   
     77. D(H  15,C   6,C   5,H  12)   -150.9219         0.010930   
     78. D(H  15,C   6,C   5,C   4)     90.0886         0.010930   
     79. D(H  14,C   6,C   5,H  13)     90.1948         0.010930   
     80. D(H  14,C   6,C   5,H  12)    -28.4107         0.010930   
     81. D(H  14,C   6,C   5,C   4)   -147.4002         0.010930   
     82. D(C   2,C   6,C   5,H  13)   -149.4045         0.010930   
     83. D(C   2,C   6,C   5,H  12)     91.9900         0.010930   
     84. D(C   2,C   6,C   5,C   4)    -26.9995         0.010930   
     85. D(H  15,C   6,C   2,H   8)     35.8945         0.010961   
     86. D(H  15,C   6,C   2,C   3)    -86.5058         0.010961   
     87. D(H  15,C   6,C   5,H  13)    -32.3163         0.010930   
     88. D(H  15,C   6,C   2,O   1)    154.5105         0.010961   
    -----------------------------------------------------------------

Number of atoms                         .... 16
Number of degrees of freedom            .... 88

         *************************************************************
         *                GEOMETRY OPTIMIZATION CYCLE   1            *
         *************************************************************
---------------------------------
CARTESIAN COORDINATES (ANGSTROEM)
---------------------------------
  O      2.335962   -1.217691    0.803880
  O      1.603597   -0.017377    0.543072
  C      0.679948   -0.244005   -0.499463
  C     -0.465710   -1.178339   -0.075591
  C     -1.507753   -0.267432    0.445759
  C     -1.166987    1.154875    0.222770
  C      0.009199    1.109109   -0.759040
  H      3.069731   -0.887808    1.337183
  H      1.223320   -0.624918   -1.374069
  H     -0.117378   -1.902425    0.667453
  H     -0.816690   -1.757954   -0.939757
  H     -2.346352   -0.595082    1.027447
  H     -0.857655    1.636317    1.161620
  H     -2.008795    1.737567   -0.164442
  H      0.716212    1.922539   -0.609779
  H     -0.350349    1.132824   -1.787044

----------------------------
CARTESIAN COORDINATES (A.U.)
----------------------------
  NO LB      ZA    FRAG     MASS         X           Y           Z
   0 O     8.0000    0    15.999    4.414329   -2.301103    1.519112
   1 O     8.0000    0    15.999    3.030359   -0.032838    1.026258
   2 C     6.0000    0    12.011    1.284915   -0.461103   -0.943849
   3 C     6.0000    0    12.011   -0.880064   -2.226738   -0.142846
   4 C     6.0000    0    12.011   -2.849240   -0.505373    0.842362
   5 C     6.0000    0    12.011   -2.205285    2.182397    0.420975
   6 C     6.0000    0    12.011    0.017384    2.095912   -1.434378
   7 H     1.0000    0     1.008    5.800950   -1.677714    2.526911
   8 H     1.0000    0     1.008    2.311740   -1.180924   -2.596615
   9 H     1.0000    0     1.008   -0.221813   -3.595062    1.261303
  10 H     1.0000    0     1.008   -1.543321   -3.322051   -1.775883
  11 H     1.0000    0     1.008   -4.433963   -1.124543    1.941594
  12 H     1.0000    0     1.008   -1.620733    3.092191    2.195144
  13 H     1.0000    0     1.008   -3.796072    3.283526   -0.310751
  14 H     1.0000    0     1.008    1.353445    3.633072   -1.152315
  15 H     1.0000    0     1.008   -0.662063    2.140727   -3.377023

--------------------------------
INTERNAL COORDINATES (ANGSTROEM)
--------------------------------
 O      0   0   0     0.000000000000     0.00000000     0.00000000
 O      1   0   0     1.430081767681     0.00000000     0.00000000
 C      2   1   0     1.411158797888   109.58068167     0.00000000
 C      3   2   1     1.537913781525   112.42899364    69.39019313
 C      4   3   2     1.478989915458   104.34951916    90.46493920
 C      5   4   3     1.479459850657   112.12890450     7.10527389
 C      3   2   1     1.532384102854   105.65442050   183.24961408
 H      1   2   3     0.965221151080   101.72526568   165.35836946
 H      3   2   1     1.097854188355   108.68202409   304.59431135
 H      4   3   2     1.094416993508   110.60850664   328.53130170
 H      4   3   2     1.098145697826   109.99056770   210.96027727
 H      5   4   3     1.071897755678   123.65877119   194.49465729
 H      6   5   4     1.099505027378   110.91957007   254.03729246
 H      6   5   4     1.094579854839   112.82739797   134.54351575
 H      7   3   2     1.088032667599   110.63933694    34.58711986
 H      7   3   2     1.089324934225   108.87814321   154.51048171

---------------------------
INTERNAL COORDINATES (A.U.)
---------------------------
 O      0   0   0     0.000000000000     0.00000000     0.00000000
 O      1   0   0     2.702462890032     0.00000000     0.00000000
 C      2   1   0     2.666703659483   109.58068167     0.00000000
 C      3   2   1     2.906235864666   112.42899364    69.39019313
 C      4   3   2     2.794885895047   104.34951916    90.46493920
 C      5   4   3     2.795773943873   112.12890450     7.10527389
 C      3   2   1     2.895786286368   105.65442050   183.24961408
 H      1   2   3     1.824003634210   101.72526568   165.35836946
 H      3   2   1     2.074643750969   108.68202409   304.59431135
 H      4   3   2     2.068148394039   110.60850664   328.53130170
 H      4   3   2     2.075194624034   109.99056770   210.96027727
 H      5   4   3     2.025593201795   123.65877119   194.49465729
 H      6   5   4     2.077763384614   110.91957007   254.03729246
 H      6   5   4     2.068456157353   112.82739797   134.54351575
 H      7   3   2     2.056083766521   110.63933694    34.58711986
 H      7   3   2     2.058525796537   108.87814321   154.51048171

---------------------
BASIS SET INFORMATION
---------------------
There are 3 groups of distinct atoms

 Group   1 Type O   : 7s4p1d contracted to 3s2p1d pattern {511/31/1}
 Group   2 Type C   : 7s4p1d contracted to 3s2p1d pattern {511/31/1}
 Group   3 Type H   : 4s1p contracted to 2s1p pattern {31/1}

Atom   0O    basis set group =>   1
Atom   1O    basis set group =>   1
Atom   2C    basis set group =>   2
Atom   3C    basis set group =>   2
Atom   4C    basis set group =>   2
Atom   5C    basis set group =>   2
Atom   6C    basis set group =>   2
Atom   7H    basis set group =>   3
Atom   8H    basis set group =>   3
Atom   9H    basis set group =>   3
Atom  10H    basis set group =>   3
Atom  11H    basis set group =>   3
Atom  12H    basis set group =>   3
Atom  13H    basis set group =>   3
Atom  14H    basis set group =>   3
Atom  15H    basis set group =>   3
---------------------------------
AUXILIARY/J BASIS SET INFORMATION
---------------------------------
There are 3 groups of distinct atoms

 Group   1 Type O   : 12s5p4d2f1g contracted to 6s4p3d1f1g pattern {711111/2111/211/2/1}
 Group   2 Type C   : 12s5p4d2f1g contracted to 6s4p3d1f1g pattern {711111/2111/211/2/1}
 Group   3 Type H   : 5s2p1d contracted to 3s1p1d pattern {311/2/1}

Atom   0O    basis set group =>   1
Atom   1O    basis set group =>   1
Atom   2C    basis set group =>   2
Atom   3C    basis set group =>   2
Atom   4C    basis set group =>   2
Atom   5C    basis set group =>   2
Atom   6C    basis set group =>   2
Atom   7H    basis set group =>   3
Atom   8H    basis set group =>   3
Atom   9H    basis set group =>   3
Atom  10H    basis set group =>   3
Atom  11H    basis set group =>   3
Atom  12H    basis set group =>   3
Atom  13H    basis set group =>   3
Atom  14H    basis set group =>   3
Atom  15H    basis set group =>   3


           ************************************************************
           *        Program running with 8 parallel MPI-processes     *
           *              working on a common directory               *
           ************************************************************
------------------------------------------------------------------------------
                           ORCA GTO INTEGRAL CALCULATION
                           -- RI-GTO INTEGRALS CHOSEN --
------------------------------------------------------------------------------
------------------------------------------------------------------------------
                   ___                                                        
                  /   \      - P O W E R E D   B Y -                         
                 /     \                                                     
                 |  |  |   _    _      __       _____    __    __             
                 |  |  |  | |  | |    /  \     |  _  \  |  |  /  |          
                  \  \/   | |  | |   /    \    | | | |  |  | /  /          
                 / \  \   | |__| |  /  /\  \   | |_| |  |  |/  /          
                |  |  |   |  __  | /  /__\  \  |    /   |      \           
                |  |  |   | |  | | |   __   |  |    \   |  |\   \          
                \     /   | |  | | |  |  |  |  | |\  \  |  | \   \       
                 \___/    |_|  |_| |__|  |__|  |_| \__\ |__|  \__/        
                                                                              
                      - O R C A' S   B I G   F R I E N D -                    
                                      &                                       
                       - I N T E G R A L  F E E D E R -                       
                                                                              
 v1 FN, 2020, v2 2021                                                         
------------------------------------------------------------------------------


Reading SHARK input file r0_C5H9O2_conf1_opt_orca.SHARKINP.tmp ... ok
----------------------
SHARK INTEGRAL PACKAGE
----------------------

Number of atoms                             ...     16
Number of basis functions                   ...    143
Number of shells                            ...     69
Maximum angular momentum                    ...      2
Integral batch strategy                     ... SHARK/LIBINT Hybrid
RI-J (if used) integral strategy            ... SPLIT-RIJ (Revised 2003 algorithm where possible)
Printlevel                                  ...      1
Contraction scheme used                     ... SEGMENTED contraction
Coulomb Range Separation                    ... NOT USED
Exchange Range Separation                   ... NOT USED
Finite Nucleus Model                        ... NOT USED
Auxiliary Coulomb fitting basis             ... AVAILABLE
   # of basis functions in Aux-J            ...    442
   # of shells in Aux-J                     ...    150
   Maximum angular momentum in Aux-J        ...      4
Auxiliary J/K fitting basis                 ... NOT available
Auxiliary Correlation fitting basis         ... NOT available
Auxiliary 'external' fitting basis          ... NOT available
Integral threshold                          ...     2.500000e-11
Primitive cut-off                           ...     2.500000e-12
Primitive pair pre-selection threshold      ...     2.500000e-12

Calculating pre-screening integrals         ... done (  0.0 sec) Dimension = 69
Organizing shell pair data                  ... done (  0.0 sec)
Shell pair information
Total number of shell pairs                 ...      2415
Shell pairs after pre-screening             ...      2344
Total number of primitive shell pairs       ...      8503
Primitive shell pairs kept                  ...      6285
          la=0 lb=0:    755 shell pairs
          la=1 lb=0:    871 shell pairs
          la=1 lb=1:    268 shell pairs
          la=2 lb=0:    265 shell pairs
          la=2 lb=1:    157 shell pairs
          la=2 lb=2:     28 shell pairs

Calculating one electron integrals          ... done (  0.0 sec)
Calculating RI/J V-Matrix + Cholesky decomp.... done (  0.0 sec)
Calculating Nuclear repulsion               ... done (  0.0 sec) ENN=    320.594995579268 Eh

SHARK setup successfully completed in   0.4 seconds

Maximum memory used throughout the entire GTOINT-calculation: 11.1 MB


           ************************************************************
           *        Program running with 8 parallel MPI-processes     *
           *              working on a common directory               *
           ************************************************************
-------------------------------------------------------------------------------
                                 ORCA SCF
-------------------------------------------------------------------------------

------------
SCF SETTINGS
------------
Hamiltonian:
 Density Functional     Method          .... DFT(GTOs)
 Exchange Functional    Exchange        .... PBE
   PBE kappa parameter   XKappa         ....  0.804000
   PBE mue parameter    XMuePBE         ....  0.219520
 Correlation Functional Correlation     .... PBE
   PBE beta parameter  CBetaPBE         ....  0.066725
 LDA part of GGA corr.  LDAOpt          .... PW91-LDA
 Gradients option       PostSCFGGA      .... off
 Hybrid DFT is turned on
   Fraction HF Exchange ScalHFX         ....  0.250000
   Scaling of DF-GGA-X  ScalDFX         ....  0.750000
   Scaling of DF-GGA-C  ScalDFC         ....  1.000000
   Scaling of DF-LDA-C  ScalLDAC        ....  1.000000
   Perturbative correction              ....  0.000000
   Density functional embedding theory  .... OFF
   NL short-range parameter             ....  6.900000
 RI-approximation to the Coulomb term is turned on
   Number of AuxJ basis functions       .... 442
   RIJ-COSX (HFX calculated with COS-X)).... on


General Settings:
 Integral files         IntName         .... r0_C5H9O2_conf1_opt_orca
 Hartree-Fock type      HFTyp           .... UHF
 Total Charge           Charge          ....    0
 Multiplicity           Mult            ....    2
 Number of Electrons    NEL             ....   55
 Basis Dimension        Dim             ....  143
 Nuclear Repulsion      ENuc            ....    320.5949955793 Eh

Convergence Acceleration:
 DIIS                   CNVDIIS         .... on
   Start iteration      DIISMaxIt       ....    12
   Startup error        DIISStart       ....  0.200000
   # of expansion vecs  DIISMaxEq       ....     5
   Bias factor          DIISBfac        ....   1.050
   Max. coefficient     DIISMaxC        ....  10.000
 Trust-Rad. Augm. Hess. CNVTRAH         .... auto
   Auto Start mean grad. ratio tolernc. ....  1.125000
   Auto Start start iteration           ....    20
   Auto Start num. interpolation iter.  ....    10
   Max. Number of Micro iterations      ....    16
   Max. Number of Macro iterations      .... Maxiter - #DIIS iter
   Number of Davidson start vectors     ....     2
   Converg. threshold I  (grad. norm)   ....   1.000e-05
   Converg. threshold II (energy diff.) ....   1.000e-08
   Grad. Scal. Fac. for Micro threshold ....   0.100
   Minimum threshold for Micro iter.    ....   0.010
   NR start threshold (gradient norm)   ....   0.001
   Initial trust radius                 ....   0.400
   Minimum AH scaling param. (alpha)    ....   1.000
   Maximum AH scaling param. (alpha)    .... 1000.000
   Orbital update algorithm             .... Taylor
   White noise on init. David. guess    .... on
   Maximum white noise                  ....   0.010
   Quad. conv. algorithm                .... NR
 SOSCF                  CNVSOSCF        .... off
 Level Shifting         CNVShift        .... on
   Level shift para.    LevelShift      ....    0.2500
   Turn off err/grad.   ShiftErr        ....    0.0010
 Zerner damping         CNVZerner       .... off
 Static damping         CNVDamp         .... on
   Fraction old density DampFac         ....    0.7000
   Max. Damping (<1)    DampMax         ....    0.9800
   Min. Damping (>=0)   DampMin         ....    0.0000
   Turn off err/grad.   DampErr         ....    0.1000
 Fernandez-Rico         CNVRico         .... off

SCF Procedure:
 Maximum # iterations   MaxIter         ....   250
 SCF integral mode      SCFMode         .... Direct
   Integral package                     .... SHARK and LIBINT hybrid scheme
 Reset frequency        DirectResetFreq ....    20
 Integral Threshold     Thresh          ....  2.500e-11 Eh
 Primitive CutOff       TCut            ....  2.500e-12 Eh

Convergence Tolerance:
 Convergence Check Mode ConvCheckMode   .... Total+1el-Energy
 Convergence forced     ConvForced      .... 0
 Energy Change          TolE            ....  1.000e-08 Eh
 1-El. energy change                    ....  1.000e-05 Eh
 DIIS Error             TolErr          ....  5.000e-07


Diagonalization of the overlap matrix:
Smallest eigenvalue                        ... 9.978e-04
Time for diagonalization                   ...    0.039 sec
Threshold for overlap eigenvalues          ... 1.000e-08
Number of eigenvalues below threshold      ... 0
Time for construction of square roots      ...    0.002 sec
Total time needed                          ...    0.041 sec

Time for model grid setup =    0.085 sec

------------------------------
INITIAL GUESS: MODEL POTENTIAL
------------------------------
Loading Hartree-Fock densities                     ... done
Calculating cut-offs                               ... done
Initializing the effective Hamiltonian             ... done
Setting up the integral package (SHARK)            ... done
Starting the Coulomb interaction                   ... done (   0.1 sec)
Reading the grid                                   ... done
Mapping shells                                     ... done
Starting the XC term evaluation                    ... done (   0.0 sec)
  promolecular density results
     # of electrons  =     54.994044945
     EX              =    -44.507210367
     EC              =     -1.828350737
     EX+EC           =    -46.335561104
Transforming the Hamiltonian                       ... done (   0.0 sec)
Diagonalizing the Hamiltonian                      ... done (   0.0 sec)
Back transforming the eigenvectors                 ... done (   0.0 sec)
Now organizing SCF variables                       ... done
                      ------------------
                      INITIAL GUESS DONE (   0.2 sec)
                      ------------------
-------------------
DFT GRID GENERATION
-------------------

General Integration Accuracy     IntAcc      ... 4.388
Radial Grid Type                 RadialGrid  ... OptM3 with GC (2021)
Angular Grid (max. ang.)         AngularGrid ... 4 (Lebedev-302)
Angular grid pruning method      GridPruning ... 4 (adaptive)
Weight generation scheme         WeightScheme... Becke
Basis function cutoff            BFCut       ... 1.0000e-11
Integration weight cutoff        WCut        ... 1.0000e-14
Angular grids for H and He will be reduced by one unit
Partially contracted basis set               ... off
Rotationally invariant grid construction     ... off

Total number of grid points                  ...    71108
Total number of batches                      ...     1119
Average number of points per batch           ...       63
Average number of grid points per atom       ...     4444
Time for grid setup =    0.296 sec

--------------------
COSX GRID GENERATION
--------------------

GRIDX 1
-------
General Integration Accuracy     IntAcc      ... 3.816
Radial Grid Type                 RadialGrid  ... OptM3 with GC (2021)
Angular Grid (max. ang.)         AngularGrid ... 1 (Lebedev-50)
Angular grid pruning method      GridPruning ... 4 (adaptive)
Weight generation scheme         WeightScheme... Becke
Basis function cutoff            BFCut       ... 1.0000e-11
Integration weight cutoff        WCut        ... 1.0000e-14
Angular grids for H and He will be reduced by one unit
Partially contracted basis set               ... on
Rotationally invariant grid construction     ... off

Total number of grid points                  ...     9112
Total number of batches                      ...      152
Average number of points per batch           ...       59
Average number of grid points per atom       ...      570
UseSFitting                                  ... on

GRIDX 2
-------
General Integration Accuracy     IntAcc      ... 4.020
Radial Grid Type                 RadialGrid  ... OptM3 with GC (2021)
Angular Grid (max. ang.)         AngularGrid ... 2 (Lebedev-110)
Angular grid pruning method      GridPruning ... 4 (adaptive)
Weight generation scheme         WeightScheme... Becke
Basis function cutoff            BFCut       ... 1.0000e-11
Integration weight cutoff        WCut        ... 1.0000e-14
Angular grids for H and He will be reduced by one unit
Partially contracted basis set               ... on
Rotationally invariant grid construction     ... off

Total number of grid points                  ...    19482
Total number of batches                      ...      313
Average number of points per batch           ...       62
Average number of grid points per atom       ...     1218
UseSFitting                                  ... on

GRIDX 3
-------
General Integration Accuracy     IntAcc      ... 4.338
Radial Grid Type                 RadialGrid  ... OptM3 with GC (2021)
Angular Grid (max. ang.)         AngularGrid ... 3 (Lebedev-194)
Angular grid pruning method      GridPruning ... 4 (adaptive)
Weight generation scheme         WeightScheme... Becke
Basis function cutoff            BFCut       ... 1.0000e-11
Integration weight cutoff        WCut        ... 1.0000e-14
Angular grids for H and He will be reduced by one unit
Partially contracted basis set               ... on
Rotationally invariant grid construction     ... off

Total number of grid points                  ...    42649
Total number of batches                      ...      675
Average number of points per batch           ...       63
Average number of grid points per atom       ...     2666
UseSFitting                                  ... on

Time for X-Grid setup             =    0.196 sec

--------------
SCF ITERATIONS
--------------
ITER       Energy         Delta-E        Max-DP      RMS-DP      [F,P]     Damp
               ***  Starting incremental Fock matrix formation  ***
  0   -345.4482351640   0.000000000000 0.03273530  0.00105981  0.0678320 0.7000
  1   -345.5118570863  -0.063621922391 0.02093316  0.00074970  0.0374387 0.7000
                               ***Turning on DIIS***
  2   -345.5400660806  -0.028208994294 0.03280342  0.00134188  0.0163678 0.0000
  3   -345.5826105682  -0.042544487530 0.01499013  0.00053894  0.0183637 0.0000
  4   -345.5925467479  -0.009936179749 0.00344228  0.00012600  0.0028199 0.0000
  5   -345.5928106614  -0.000263913483 0.00148425  0.00005781  0.0011725 0.0000
  6   -345.5928416960  -0.000031034585 0.00075337  0.00002796  0.0013719 0.0000
  7   -345.5928590006  -0.000017304631 0.00067451  0.00002500  0.0002117 0.0000
               *** Restarting incremental Fock matrix formation ***
                                   *** Resetting DIIS ***
  8   -345.5928421481   0.000016852534 0.00014433  0.00000724  0.0001164 0.0000
  9   -345.5928421372   0.000000010843 0.00009698  0.00000309  0.0001616 0.0000
 10   -345.5928423939  -0.000000256699 0.00003197  0.00000093  0.0000295 0.0000
 11   -345.5928423986  -0.000000004641 0.00002183  0.00000053  0.0000341 0.0000
 12   -345.5928424044  -0.000000005769 0.00000751  0.00000019  0.0000071 0.0000
 13   -345.5928424050  -0.000000000636 0.00000299  0.00000008  0.0000018 0.0000
                            ***DIIS convergence achieved***

               *****************************************************
               *                     SUCCESS                       *
               *           SCF CONVERGED AFTER  14 CYCLES          *
               *****************************************************

Old exchange energy                            =    -11.378161027 Eh
New exchange energy                            =    -11.378188887 Eh
Exchange energy change after final integration =     -0.000027859 Eh
Total energy after final integration           =   -345.592870268 Eh
Final COS-X integration done in                =     0.792 sec

----------------
TOTAL SCF ENERGY
----------------

Total Energy       :         -345.59287027 Eh           -9404.06009 eV

Components:
Nuclear Repulsion  :          320.59499558 Eh            8723.83334 eV
Electronic Energy  :         -666.18786585 Eh          -18127.89343 eV
One Electron Energy:        -1105.75189372 Eh          -30089.03873 eV
Two Electron Energy:          439.56402787 Eh           11961.14529 eV
Max COSX asymmetry :            0.00000149 Eh               0.00004 eV

Virial components:
Potential Energy   :         -688.32361948 Eh          -18730.23791 eV
Kinetic Energy     :          342.73074921 Eh            9326.17782 eV
Virial Ratio       :            2.00835093


DFT components:
N(Alpha)           :       28.000021505163 electrons
N(Beta)            :       27.000014985364 electrons
N(Total)           :       55.000036490527 electrons
E(X)               :      -34.028463093298 Eh       
E(C)               :       -1.837151054916 Eh       
E(XC)              :      -35.865614148214 Eh       
DFET-embed. en.    :        0.000000000000 Eh       

---------------
SCF CONVERGENCE
---------------

  Last Energy change         ...   -3.7576e-09  Tolerance :   1.0000e-08
  Last MAX-Density change    ...    0.0000e+00  Tolerance :   1.0000e-07
  Last RMS-Density change    ...    0.0000e+00  Tolerance :   5.0000e-09
  Last DIIS Error            ...    6.2988e-07  Tolerance :   5.0000e-07

             **** THE GBW FILE WAS UPDATED (r0_C5H9O2_conf1_opt_orca.gbw) ****
             **** DENSITY r0_C5H9O2_conf1_opt_orca.scfp WAS UPDATED ****
             **** ENERGY FILE WAS UPDATED (r0_C5H9O2_conf1_opt_orca.en.tmp) ****
----------------------
UHF SPIN CONTAMINATION
----------------------

Warning: in a DFT calculation there is little theoretical justification to 
         calculate <S**2> as in Hartree-Fock theory. We will do it anyways
         but you should keep in mind that the values have only limited relevance

Expectation value of <S**2>     :     0.754880
Ideal value S*(S+1) for S=0.5   :     0.750000
Deviation                       :     0.004880

             **** THE GBW FILE WAS UPDATED (r0_C5H9O2_conf1_opt_orca.gbw) ****
             **** DENSITY r0_C5H9O2_conf1_opt_orca.scfp WAS UPDATED ****
----------------
ORBITAL ENERGIES
----------------
                 SPIN UP ORBITALS
  NO   OCC          E(Eh)            E(eV) 
   0   1.0000     -19.254778      -523.9491 
   1   1.0000     -19.252388      -523.8841 
   2   1.0000     -10.279471      -279.7186 
   3   1.0000     -10.231037      -278.4007 
   4   1.0000     -10.226721      -278.2832 
   5   1.0000     -10.226345      -278.2730 
   6   1.0000     -10.222441      -278.1668 
   7   1.0000      -1.137516       -30.9534 
   8   1.0000      -0.933442       -25.4003 
   9   1.0000      -0.843613       -22.9559 
  10   1.0000      -0.733197       -19.9513 
  11   1.0000      -0.708413       -19.2769 
  12   1.0000      -0.581049       -15.8112 
  13   1.0000      -0.575541       -15.6613 
  14   1.0000      -0.542196       -14.7539 
  15   1.0000      -0.513095       -13.9620 
  16   1.0000      -0.501401       -13.6438 
  17   1.0000      -0.455174       -12.3859 
  18   1.0000      -0.436385       -11.8747 
  19   1.0000      -0.410482       -11.1698 
  20   1.0000      -0.379509       -10.3270 
  21   1.0000      -0.368928       -10.0390 
  22   1.0000      -0.363747        -9.8981 
  23   1.0000      -0.362402        -9.8615 
  24   1.0000      -0.349327        -9.5057 
  25   1.0000      -0.334589        -9.1046 
  26   1.0000      -0.246508        -6.7078 
  27   1.0000      -0.193130        -5.2553 
  28   0.0000       0.047043         1.2801 
  29   0.0000       0.071443         1.9441 
  30   0.0000       0.099422         2.7054 
  31   0.0000       0.107364         2.9215 
  32   0.0000       0.123071         3.3489 
  33   0.0000       0.130600         3.5538 
  34   0.0000       0.143565         3.9066 
  35   0.0000       0.148929         4.0526 
  36   0.0000       0.166673         4.5354 
  37   0.0000       0.185613         5.0508 
  38   0.0000       0.189983         5.1697 
  39   0.0000       0.196993         5.3605 
  40   0.0000       0.231365         6.2958 
  41   0.0000       0.266462         7.2508 
  42   0.0000       0.303990         8.2720 
  43   0.0000       0.347738         9.4624 
  44   0.0000       0.455318        12.3898 
  45   0.0000       0.466605        12.6970 
  46   0.0000       0.477448        12.9920 
  47   0.0000       0.497860        13.5475 
  48   0.0000       0.519124        14.1261 
  49   0.0000       0.540953        14.7201 
  50   0.0000       0.564031        15.3481 
  51   0.0000       0.573572        15.6077 
  52   0.0000       0.593385        16.1468 
  53   0.0000       0.605740        16.4830 
  54   0.0000       0.624888        17.0041 
  55   0.0000       0.637276        17.3411 
  56   0.0000       0.657972        17.9043 
  57   0.0000       0.668242        18.1838 
  58   0.0000       0.679503        18.4902 
  59   0.0000       0.685451        18.6521 
  60   0.0000       0.698202        18.9990 
  61   0.0000       0.702233        19.1087 
  62   0.0000       0.707613        19.2551 
  63   0.0000       0.716339        19.4926 
  64   0.0000       0.738049        20.0833 
  65   0.0000       0.750323        20.4173 
  66   0.0000       0.765142        20.8206 
  67   0.0000       0.783395        21.3173 
  68   0.0000       0.821613        22.3572 
  69   0.0000       0.908565        24.7233 
  70   0.0000       0.934604        25.4319 
  71   0.0000       0.966099        26.2889 
  72   0.0000       0.999137        27.1879 
  73   0.0000       1.019673        27.7467 
  74   0.0000       1.082267        29.4500 
  75   0.0000       1.090593        29.6765 
  76   0.0000       1.157768        31.5045 
  77   0.0000       1.176898        32.0250 
  78   0.0000       1.216428        33.1007 
  79   0.0000       1.247460        33.9451 
  80   0.0000       1.260762        34.3071 
  81   0.0000       1.354491        36.8576 
  82   0.0000       1.422859        38.7180 
  83   0.0000       1.447856        39.3982 
  84   0.0000       1.480849        40.2959 
  85   0.0000       1.487112        40.4664 
  86   0.0000       1.532993        41.7149 
  87   0.0000       1.569146        42.6986 
  88   0.0000       1.625915        44.2434 
  89   0.0000       1.664887        45.3039 
  90   0.0000       1.689037        45.9610 
  91   0.0000       1.710612        46.5481 
  92   0.0000       1.720763        46.8243 
  93   0.0000       1.751774        47.6682 
  94   0.0000       1.757006        47.8106 
  95   0.0000       1.800083        48.9828 
  96   0.0000       1.812537        49.3216 
  97   0.0000       1.834380        49.9160 
  98   0.0000       1.846140        50.2360 
  99   0.0000       1.873168        50.9715 
 100   0.0000       1.892326        51.4928 
 101   0.0000       1.894846        51.5614 
 102   0.0000       1.900964        51.7279 
 103   0.0000       1.940542        52.8048 
 104   0.0000       1.971935        53.6591 
 105   0.0000       1.993299        54.2404 
 106   0.0000       2.010793        54.7165 
 107   0.0000       2.040415        55.5225 
 108   0.0000       2.117916        57.6314 
 109   0.0000       2.138864        58.2015 
 110   0.0000       2.157592        58.7111 
 111   0.0000       2.165773        58.9337 
 112   0.0000       2.222251        60.4705 
 113   0.0000       2.261258        61.5319 
 114   0.0000       2.313526        62.9543 
 115   0.0000       2.326311        63.3021 
 116   0.0000       2.370570        64.5065 
 117   0.0000       2.372622        64.5623 
 118   0.0000       2.405767        65.4642 
 119   0.0000       2.459166        66.9173 
 120   0.0000       2.488592        67.7180 
 121   0.0000       2.527441        68.7752 
 122   0.0000       2.565781        69.8184 
 123   0.0000       2.618154        71.2436 
 124   0.0000       2.640518        71.8521 
 125   0.0000       2.655328        72.2551 
 126   0.0000       2.738943        74.5304 
 127   0.0000       2.817240        76.6610 
 128   0.0000       2.863845        77.9292 
 129   0.0000       2.879388        78.3521 
 130   0.0000       2.884916        78.5026 
 131   0.0000       2.947700        80.2110 
 132   0.0000       2.974581        80.9425 
 133   0.0000       2.979193        81.0680 
 134   0.0000       3.007650        81.8423 
 135   0.0000       3.065348        83.4123 
 136   0.0000       3.074782        83.6691 
 137   0.0000       3.115396        84.7742 
 138   0.0000       3.137345        85.3715 
 139   0.0000       3.234542        88.0164 
 140   0.0000       3.415853        92.9501 
 141   0.0000       3.614674        98.3603 
 142   0.0000       3.907690       106.3337 

                 SPIN DOWN ORBITALS
  NO   OCC          E(Eh)            E(eV) 
   0   1.0000     -19.254811      -523.9500 
   1   1.0000     -19.252349      -523.8830 
   2   1.0000     -10.279382      -279.7162 
   3   1.0000     -10.230954      -278.3984 
   4   1.0000     -10.227892      -278.3151 
   5   1.0000     -10.223626      -278.1990 
   6   1.0000     -10.210784      -277.8496 
   7   1.0000      -1.137494       -30.9528 
   8   1.0000      -0.932797       -25.3827 
   9   1.0000      -0.834102       -22.6971 
  10   1.0000      -0.729147       -19.8411 
  11   1.0000      -0.697289       -18.9742 
  12   1.0000      -0.579608       -15.7719 
  13   1.0000      -0.562740       -15.3129 
  14   1.0000      -0.535133       -14.5617 
  15   1.0000      -0.509068       -13.8524 
  16   1.0000      -0.498465       -13.5639 
  17   1.0000      -0.447594       -12.1796 
  18   1.0000      -0.431507       -11.7419 
  19   1.0000      -0.401877       -10.9356 
  20   1.0000      -0.374736       -10.1971 
  21   1.0000      -0.362187        -9.8556 
  22   1.0000      -0.359717        -9.7884 
  23   1.0000      -0.357078        -9.7166 
  24   1.0000      -0.348311        -9.4780 
  25   1.0000      -0.333863        -9.0849 
  26   1.0000      -0.246362        -6.7038 
  27   0.0000      -0.021333        -0.5805 
  28   0.0000       0.047904         1.3035 
  29   0.0000       0.073160         1.9908 
  30   0.0000       0.101645         2.7659 
  31   0.0000       0.111307         3.0288 
  32   0.0000       0.125494         3.4149 
  33   0.0000       0.133965         3.6454 
  34   0.0000       0.149391         4.0651 
  35   0.0000       0.153912         4.1882 
  36   0.0000       0.169476         4.6117 
  37   0.0000       0.188224         5.1218 
  38   0.0000       0.193081         5.2540 
  39   0.0000       0.201034         5.4704 
  40   0.0000       0.232945         6.3387 
  41   0.0000       0.267854         7.2887 
  42   0.0000       0.314908         8.5691 
  43   0.0000       0.352169         9.5830 
  44   0.0000       0.466432        12.6923 
  45   0.0000       0.475621        12.9423 
  46   0.0000       0.497351        13.5336 
  47   0.0000       0.501807        13.6549 
  48   0.0000       0.528942        14.3933 
  49   0.0000       0.546017        14.8579 
  50   0.0000       0.577745        15.7212 
  51   0.0000       0.597165        16.2497 
  52   0.0000       0.604570        16.4512 
  53   0.0000       0.624536        16.9945 
  54   0.0000       0.630145        17.1471 
  55   0.0000       0.642031        17.4705 
  56   0.0000       0.663927        18.0664 
  57   0.0000       0.677038        18.4231 
  58   0.0000       0.685550        18.6548 
  59   0.0000       0.691600        18.8194 
  60   0.0000       0.701055        19.0767 
  61   0.0000       0.704786        19.1782 
  62   0.0000       0.710680        19.3386 
  63   0.0000       0.719971        19.5914 
  64   0.0000       0.742597        20.2071 
  65   0.0000       0.755839        20.5674 
  66   0.0000       0.770303        20.9610 
  67   0.0000       0.787391        21.4260 
  68   0.0000       0.826594        22.4928 
  69   0.0000       0.909498        24.7487 
  70   0.0000       0.938670        25.5425 
  71   0.0000       0.970727        26.4148 
  72   0.0000       1.001762        27.2593 
  73   0.0000       1.022484        27.8232 
  74   0.0000       1.085503        29.5380 
  75   0.0000       1.094628        29.7864 
  76   0.0000       1.163059        31.6485 
  77   0.0000       1.180380        32.1198 
  78   0.0000       1.218754        33.1640 
  79   0.0000       1.252973        34.0951 
  80   0.0000       1.261756        34.3341 
  81   0.0000       1.357197        36.9312 
  82   0.0000       1.428763        38.8786 
  83   0.0000       1.448888        39.4263 
  84   0.0000       1.484974        40.4082 
  85   0.0000       1.492180        40.6043 
  86   0.0000       1.539906        41.9030 
  87   0.0000       1.573935        42.8289 
  88   0.0000       1.650726        44.9185 
  89   0.0000       1.666864        45.3577 
  90   0.0000       1.692266        46.0489 
  91   0.0000       1.713106        46.6160 
  92   0.0000       1.723402        46.8962 
  93   0.0000       1.754949        47.7546 
  94   0.0000       1.761801        47.9410 
  95   0.0000       1.804171        49.0940 
  96   0.0000       1.816652        49.4336 
  97   0.0000       1.841605        50.1126 
  98   0.0000       1.851544        50.3831 
  99   0.0000       1.878152        51.1071 
 100   0.0000       1.895619        51.5824 
 101   0.0000       1.902895        51.7804 
 102   0.0000       1.919876        52.2425 
 103   0.0000       1.950262        53.0693 
 104   0.0000       1.980896        53.9029 
 105   0.0000       2.007527        54.6276 
 106   0.0000       2.016866        54.8817 
 107   0.0000       2.051047        55.8118 
 108   0.0000       2.123942        57.7954 
 109   0.0000       2.144717        58.3607 
 110   0.0000       2.165739        58.9328 
 111   0.0000       2.169859        59.0449 
 112   0.0000       2.223482        60.5040 
 113   0.0000       2.269808        61.7646 
 114   0.0000       2.328849        63.3712 
 115   0.0000       2.337404        63.6040 
 116   0.0000       2.371858        64.5415 
 117   0.0000       2.383709        64.8640 
 118   0.0000       2.415326        65.7244 
 119   0.0000       2.462042        66.9956 
 120   0.0000       2.494470        67.8780 
 121   0.0000       2.534278        68.9612 
 122   0.0000       2.575061        70.0710 
 123   0.0000       2.621143        71.3249 
 124   0.0000       2.644335        71.9560 
 125   0.0000       2.659533        72.3696 
 126   0.0000       2.742115        74.6167 
 127   0.0000       2.820406        76.7472 
 128   0.0000       2.868613        78.0589 
 129   0.0000       2.881481        78.4091 
 130   0.0000       2.888111        78.5895 
 131   0.0000       2.950069        80.2755 
 132   0.0000       2.975659        80.9718 
 133   0.0000       2.981148        81.1212 
 134   0.0000       3.010153        81.9104 
 135   0.0000       3.066168        83.4347 
 136   0.0000       3.079345        83.7932 
 137   0.0000       3.116171        84.7953 
 138   0.0000       3.144845        85.5756 
 139   0.0000       3.234825        88.0241 
 140   0.0000       3.416028        92.9549 
 141   0.0000       3.614732        98.3619 
 142   0.0000       3.907717       106.3344 

                    ********************************
                    * MULLIKEN POPULATION ANALYSIS *
                    ********************************

--------------------------------------------
MULLIKEN ATOMIC CHARGES AND SPIN POPULATIONS
--------------------------------------------
   0 O :   -0.157829    0.000375
   1 O :   -0.284561   -0.000760
   2 C :    0.049559    0.004474
   3 C :    0.082603   -0.106302
   4 C :   -0.198244    1.069084
   5 C :    0.020807   -0.106658
   6 C :   -0.039255    0.008187
   7 H :    0.189779    0.000439
   8 H :    0.023185   -0.000239
   9 H :    0.056307    0.034734
  10 H :    0.043397    0.055955
  11 H :    0.023906   -0.050383
  12 H :    0.052228    0.059628
  13 H :    0.042264    0.032914
  14 H :    0.046349   -0.000550
  15 H :    0.049505   -0.000897
Sum of atomic charges         :    0.0000000
Sum of atomic spin populations:    1.0000000

-----------------------------------------------------
MULLIKEN REDUCED ORBITAL CHARGES AND SPIN POPULATIONS
-----------------------------------------------------
CHARGE
  0 O s       :     3.769161  s :     3.769161
      pz      :     1.743379  p :     4.370350
      px      :     1.359338
      py      :     1.267633
      dz2     :     0.002413  d :     0.018318
      dxz     :     0.002364
      dyz     :     0.003063
      dx2y2   :     0.004381
      dxy     :     0.006097
  1 O s       :     3.842424  s :     3.842424
      pz      :     1.627918  p :     4.419643
      px      :     1.504324
      py      :     1.287401
      dz2     :     0.004380  d :     0.022494
      dxz     :     0.003726
      dyz     :     0.003712
      dx2y2   :     0.004485
      dxy     :     0.006191
  2 C s       :     3.121509  s :     3.121509
      pz      :     0.869164  p :     2.759517
      px      :     0.890241
      py      :     1.000112
      dz2     :     0.015557  d :     0.069414
      dxz     :     0.020176
      dyz     :     0.008566
      dx2y2   :     0.011632
      dxy     :     0.013483
  3 C s       :     2.948596  s :     2.948596
      pz      :     1.012819  p :     2.933313
      px      :     0.941491
      py      :     0.979004
      dz2     :     0.004536  d :     0.035488
      dxz     :     0.006164
      dyz     :     0.009701
      dx2y2   :     0.005532
      dxy     :     0.009554
  4 C s       :     3.259532  s :     3.259532
      pz      :     0.996010  p :     2.907026
      px      :     0.967111
      py      :     0.943905
      dz2     :     0.002883  d :     0.031687
      dxz     :     0.004873
      dyz     :     0.006209
      dx2y2   :     0.008615
      dxy     :     0.009107
  5 C s       :     2.988914  s :     2.988914
      pz      :     1.000932  p :     2.952607
      px      :     0.980840
      py      :     0.970836
      dz2     :     0.006884  d :     0.037672
      dxz     :     0.006763
      dyz     :     0.008202
      dx2y2   :     0.007174
      dxy     :     0.008649
  6 C s       :     3.044413  s :     3.044413
      pz      :     1.007068  p :     2.960916
      px      :     0.987823
      py      :     0.966025
      dz2     :     0.009134  d :     0.033927
      dxz     :     0.006776
      dyz     :     0.003052
      dx2y2   :     0.005398
      dxy     :     0.009568
  7 H s       :     0.743184  s :     0.743184
      pz      :     0.025648  p :     0.067037
      px      :     0.028739
      py      :     0.012650
  8 H s       :     0.956314  s :     0.956314
      pz      :     0.009900  p :     0.020501
      px      :     0.005536
      py      :     0.005065
  9 H s       :     0.919788  s :     0.919788
      pz      :     0.009738  p :     0.023905
      px      :     0.005484
      py      :     0.008684
 10 H s       :     0.932954  s :     0.932954
      pz      :     0.010906  p :     0.023648
      px      :     0.005421
      py      :     0.007321
 11 H s       :     0.951425  s :     0.951425
      pz      :     0.008865  p :     0.024670
      px      :     0.011397
      py      :     0.004408
 12 H s       :     0.924230  s :     0.924230
      pz      :     0.011706  p :     0.023541
      px      :     0.005356
      py      :     0.006480
 13 H s       :     0.934469  s :     0.934469
      pz      :     0.005822  p :     0.023267
      px      :     0.010297
      py      :     0.007148
 14 H s       :     0.930352  s :     0.930352
      pz      :     0.004697  p :     0.023298
      px      :     0.008821
      py      :     0.009781
 15 H s       :     0.927100  s :     0.927100
      pz      :     0.013366  p :     0.023395
      px      :     0.005546
      py      :     0.004483

SPIN
  0 O s       :     0.000002  s :     0.000002
      pz      :     0.000055  p :     0.000369
      px      :     0.000303
      py      :     0.000011
      dz2     :     0.000001  d :     0.000004
      dxz     :    -0.000001
      dyz     :     0.000001
      dx2y2   :     0.000001
      dxy     :     0.000002
  1 O s       :     0.000091  s :     0.000091
      pz      :     0.000149  p :    -0.000860
      px      :    -0.000562
      py      :    -0.000447
      dz2     :     0.000000  d :     0.000009
      dxz     :    -0.000001
      dyz     :     0.000002
      dx2y2   :    -0.000002
      dxy     :     0.000010
  2 C s       :     0.000331  s :     0.000331
      pz      :     0.000019  p :     0.004240
      px      :     0.001354
      py      :     0.002867
      dz2     :    -0.000010  d :    -0.000097
      dxz     :    -0.000125
      dyz     :     0.000151
      dx2y2   :    -0.000106
      dxy     :    -0.000007
  3 C s       :    -0.033707  s :    -0.033707
      pz      :    -0.025522  p :    -0.080549
      px      :    -0.031170
      py      :    -0.023857
      dz2     :     0.001721  d :     0.007954
      dxz     :     0.000604
      dyz     :     0.004322
      dx2y2   :     0.000661
      dxy     :     0.000645
  4 C s       :     0.139198  s :     0.139198
      pz      :     0.639662  p :     0.932489
      px      :     0.258512
      py      :     0.034316
      dz2     :    -0.000860  d :    -0.002603
      dxz     :    -0.001721
      dyz     :     0.000109
      dx2y2   :    -0.000087
      dxy     :    -0.000045
  5 C s       :    -0.033878  s :    -0.033878
      pz      :    -0.021468  p :    -0.080648
      px      :    -0.014292
      py      :    -0.044888
      dz2     :     0.000030  d :     0.007868
      dxz     :     0.000288
      dyz     :     0.005282
      dx2y2   :     0.000002
      dxy     :     0.002266
  6 C s       :     0.002439  s :     0.002439
      pz      :     0.001418  p :     0.005916
      px      :     0.002241
      py      :     0.002258
      dz2     :    -0.000126  d :    -0.000169
      dxz     :    -0.000003
      dyz     :     0.000008
      dx2y2   :     0.000008
      dxy     :    -0.000056
  7 H s       :     0.000440  s :     0.000440
      pz      :     0.000003  p :    -0.000001
      px      :    -0.000003
      py      :    -0.000001
  8 H s       :    -0.000228  s :    -0.000228
      pz      :    -0.000005  p :    -0.000012
      px      :     0.000005
      py      :    -0.000011
  9 H s       :     0.035007  s :     0.035007
      pz      :    -0.000036  p :    -0.000273
      px      :     0.000045
      py      :    -0.000282
 10 H s       :     0.056318  s :     0.056318
      pz      :    -0.000272  p :    -0.000363
      px      :     0.000195
      py      :    -0.000286
 11 H s       :    -0.056409  s :    -0.056409
      pz      :     0.004006  p :     0.006027
      px      :     0.002060
      py      :    -0.000039
 12 H s       :     0.059954  s :     0.059954
      pz      :    -0.000021  p :    -0.000326
      px      :     0.000023
      py      :    -0.000328
 13 H s       :     0.033198  s :     0.033198
      pz      :    -0.000004  p :    -0.000284
      px      :     0.000034
      py      :    -0.000315
 14 H s       :    -0.000540  s :    -0.000540
      pz      :    -0.000006  p :    -0.000010
      px      :    -0.000004
      py      :    -0.000000
 15 H s       :    -0.000904  s :    -0.000904
      pz      :     0.000011  p :     0.000006
      px      :    -0.000006
      py      :     0.000002


                     *******************************
                     * LOEWDIN POPULATION ANALYSIS *
                     *******************************

-------------------------------------------
LOEWDIN ATOMIC CHARGES AND SPIN POPULATIONS
-------------------------------------------
   0 O :   -0.066637    0.000830
   1 O :   -0.101302   -0.000713
   2 C :    0.048217    0.003257
   3 C :   -0.065922   -0.013731
   4 C :   -0.025428    0.865449
   5 C :   -0.055674   -0.014533
   6 C :   -0.039385    0.003905
   7 H :    0.076967    0.000372
   8 H :    0.009199   -0.000042
   9 H :    0.040222    0.029754
  10 H :    0.035554    0.046808
  11 H :    0.009231    0.001670
  12 H :    0.036726    0.049802
  13 H :    0.031487    0.028067
  14 H :    0.031778   -0.000339
  15 H :    0.034967   -0.000553

----------------------------------------------------
LOEWDIN REDUCED ORBITAL CHARGES AND SPIN POPULATIONS
----------------------------------------------------
CHARGE
  0 O s       :     3.540197  s :     3.540197
      pz      :     1.741472  p :     4.493638
      px      :     1.401024
      py      :     1.351141
      dz2     :     0.003460  d :     0.032803
      dxz     :     0.005744
      dyz     :     0.005117
      dx2y2   :     0.007608
      dxy     :     0.010873
  1 O s       :     3.558859  s :     3.558859
      pz      :     1.653348  p :     4.503477
      px      :     1.516365
      py      :     1.333764
      dz2     :     0.007234  d :     0.038967
      dxz     :     0.007202
      dyz     :     0.006260
      dx2y2   :     0.007480
      dxy     :     0.010790
  2 C s       :     2.861430  s :     2.861430
      pz      :     0.929004  p :     2.932147
      px      :     0.957814
      py      :     1.045328
      dz2     :     0.035563  d :     0.158206
      dxz     :     0.046062
      dyz     :     0.018520
      dx2y2   :     0.023695
      dxy     :     0.034365
  3 C s       :     2.840093  s :     2.840093
      pz      :     1.062414  p :     3.132531
      px      :     1.031220
      py      :     1.038897
      dz2     :     0.011292  d :     0.093299
      dxz     :     0.015039
      dyz     :     0.027058
      dx2y2   :     0.011727
      dxy     :     0.028183
  4 C s       :     2.901107  s :     2.901107
      pz      :     0.999136  p :     3.047794
      px      :     1.025006
      py      :     1.023652
      dz2     :     0.005863  d :     0.076527
      dxz     :     0.010883
      dyz     :     0.013610
      dx2y2   :     0.022267
      dxy     :     0.023903
  5 C s       :     2.833797  s :     2.833797
      pz      :     1.046718  p :     3.125621
      px      :     1.034305
      py      :     1.044598
      dz2     :     0.015925  d :     0.096256
      dxz     :     0.018588
      dyz     :     0.020863
      dx2y2   :     0.019960
      dxy     :     0.020920
  6 C s       :     2.844417  s :     2.844417
      pz      :     1.052510  p :     3.109600
      px      :     1.033562
      py      :     1.023528
      dz2     :     0.022981  d :     0.085367
      dxz     :     0.017983
      dyz     :     0.005932
      dx2y2   :     0.014026
      dxy     :     0.024445
  7 H s       :     0.745105  s :     0.745105
      pz      :     0.067376  p :     0.177929
      px      :     0.073061
      py      :     0.037492
  8 H s       :     0.922919  s :     0.922919
      pz      :     0.032300  p :     0.067882
      px      :     0.018215
      py      :     0.017367
  9 H s       :     0.889598  s :     0.889598
      pz      :     0.027271  p :     0.070179
      px      :     0.017057
      py      :     0.025851
 10 H s       :     0.895452  s :     0.895452
      pz      :     0.030454  p :     0.068994
      px      :     0.016377
      py      :     0.022163
 11 H s       :     0.910616  s :     0.910616
      pz      :     0.029573  p :     0.080153
      px      :     0.034770
      py      :     0.015809
 12 H s       :     0.894748  s :     0.894748
      pz      :     0.033663  p :     0.068527
      px      :     0.015608
      py      :     0.019256
 13 H s       :     0.900458  s :     0.900458
      pz      :     0.017039  p :     0.068055
      px      :     0.029707
      py      :     0.021310
 14 H s       :     0.898021  s :     0.898021
      pz      :     0.014078  p :     0.070201
      px      :     0.025938
      py      :     0.030185
 15 H s       :     0.895641  s :     0.895641
      pz      :     0.038562  p :     0.069391
      px      :     0.016901
      py      :     0.013929

SPIN
  0 O s       :     0.000293  s :     0.000293
      pz      :     0.000063  p :     0.000523
      px      :     0.000448
      py      :     0.000012
      dz2     :     0.000002  d :     0.000015
      dxz     :     0.000003
      dyz     :     0.000002
      dx2y2   :     0.000004
      dxy     :     0.000003
  1 O s       :    -0.000065  s :    -0.000065
      pz      :     0.000204  p :    -0.000692
      px      :    -0.000526
      py      :    -0.000370
      dz2     :     0.000002  d :     0.000044
      dxz     :     0.000002
      dyz     :     0.000015
      dx2y2   :    -0.000002
      dxy     :     0.000028
  2 C s       :     0.000313  s :     0.000313
      pz      :     0.000333  p :     0.003126
      px      :     0.000671
      py      :     0.002122
      dz2     :    -0.000031  d :    -0.000182
      dxz     :    -0.000290
      dyz     :     0.000324
      dx2y2   :    -0.000151
      dxy     :    -0.000034
  3 C s       :    -0.005624  s :    -0.005624
      pz      :    -0.008439  p :    -0.028499
      px      :    -0.010814
      py      :    -0.009246
      dz2     :     0.004067  d :     0.020391
      dxz     :     0.001470
      dyz     :     0.010893
      dx2y2   :     0.001639
      dxy     :     0.002321
  4 C s       :     0.033528  s :     0.033528
      pz      :     0.585740  p :     0.836330
      px      :     0.230194
      py      :     0.020396
      dz2     :    -0.000929  d :    -0.004409
      dxz     :    -0.001777
      dyz     :    -0.000243
      dx2y2   :    -0.000722
      dxy     :    -0.000737
  5 C s       :    -0.005554  s :    -0.005554
      pz      :    -0.006289  p :    -0.029285
      px      :    -0.005810
      py      :    -0.017186
      dz2     :     0.000502  d :     0.020306
      dxz     :     0.000679
      dyz     :     0.012794
      dx2y2   :     0.000649
      dxy     :     0.005682
  6 C s       :     0.000389  s :     0.000389
      pz      :     0.000855  p :     0.003840
      px      :     0.001827
      py      :     0.001157
      dz2     :    -0.000249  d :    -0.000324
      dxz     :    -0.000030
      dyz     :     0.000042
      dx2y2   :    -0.000030
      dxy     :    -0.000056
  7 H s       :     0.000345  s :     0.000345
      pz      :    -0.000008  p :     0.000027
      px      :     0.000036
      py      :    -0.000001
  8 H s       :    -0.000120  s :    -0.000120
      pz      :     0.000079  p :     0.000078
      px      :     0.000001
      py      :    -0.000002
  9 H s       :     0.030743  s :     0.030743
      pz      :    -0.000477  p :    -0.000989
      px      :     0.000193
      py      :    -0.000705
 10 H s       :     0.048048  s :     0.048048
      pz      :    -0.000508  p :    -0.001240
      px      :    -0.000133
      py      :    -0.000600
 11 H s       :    -0.024143  s :    -0.024143
      pz      :     0.016399  p :     0.025813
      px      :     0.008646
      py      :     0.000768
 12 H s       :     0.050790  s :     0.050790
      pz      :    -0.000729  p :    -0.000989
      px      :    -0.000024
      py      :    -0.000236
 13 H s       :     0.029110  s :     0.029110
      pz      :     0.000051  p :    -0.001043
      px      :    -0.000394
      py      :    -0.000699
 14 H s       :    -0.000418  s :    -0.000418
      pz      :    -0.000001  p :     0.000079
      px      :     0.000077
      py      :     0.000003
 15 H s       :    -0.000800  s :    -0.000800
      pz      :     0.000102  p :     0.000246
      px      :     0.000029
      py      :     0.000115


                      *****************************
                      * MAYER POPULATION ANALYSIS *
                      *****************************

  NA   - Mulliken gross atomic population
  ZA   - Total nuclear charge
  QA   - Mulliken gross atomic charge
  VA   - Mayer's total valence
  BVA  - Mayer's bonded valence
  FA   - Mayer's free valence

  ATOM       NA         ZA         QA         VA         BVA        FA
  0 O      8.1578     8.0000    -0.1578     1.9725     1.9725     0.0000
  1 O      8.2846     8.0000    -0.2846     1.9214     1.9214     0.0000
  2 C      5.9504     6.0000     0.0496     4.0481     4.0481     0.0000
  3 C      5.9174     6.0000     0.0826     3.8474     3.8424     0.0050
  4 C      6.1982     6.0000    -0.1982     3.9985     3.2180     0.7805
  5 C      5.9792     6.0000     0.0208     3.9615     3.9566     0.0050
  6 C      6.0393     6.0000    -0.0393     3.9900     3.9899     0.0000
  7 H      0.8102     1.0000     0.1898     1.0033     1.0033     0.0000
  8 H      0.9768     1.0000     0.0232     0.9903     0.9903     0.0000
  9 H      0.9437     1.0000     0.0563     1.0008     0.9996     0.0013
 10 H      0.9566     1.0000     0.0434     0.9757     0.9724     0.0033
 11 H      0.9761     1.0000     0.0239     0.9944     0.9911     0.0033
 12 H      0.9478     1.0000     0.0522     0.9740     0.9702     0.0038
 13 H      0.9577     1.0000     0.0423     0.9735     0.9723     0.0012
 14 H      0.9537     1.0000     0.0463     0.9944     0.9944     0.0000
 15 H      0.9505     1.0000     0.0495     0.9742     0.9742     0.0000

  Mayer bond orders larger than 0.100000
B(  0-O ,  1-O ) :   0.9299 B(  0-O ,  7-H ) :   0.9716 B(  1-O ,  2-C ) :   0.9354 
B(  2-C ,  3-C ) :   1.0180 B(  2-C ,  6-C ) :   1.0545 B(  2-C ,  8-H ) :   0.9405 
B(  3-C ,  4-C ) :   1.0420 B(  3-C ,  9-H ) :   0.9212 B(  3-C , 10-H ) :   0.9220 
B(  4-C ,  5-C ) :   1.0637 B(  4-C , 11-H ) :   0.9823 B(  5-C ,  6-C ) :   1.0496 
B(  5-C , 12-H ) :   0.9205 B(  5-C , 13-H ) :   0.9432 B(  6-C , 14-H ) :   0.9411 
B(  6-C , 15-H ) :   0.9475 


------------------
HIRSHFELD ANALYSIS
------------------

Total integrated alpha density =     28.000021505
Total integrated beta density  =     27.000014985

  ATOM     CHARGE      SPIN    
   0 O   -0.168641    0.001352
   1 O   -0.120765    0.000387
   2 C    0.066272    0.006593
   3 C   -0.058619    0.048533
   4 C   -0.024106    0.691330
   5 C   -0.049833    0.048500
   6 C   -0.039535    0.007150
   7 H    0.177384    0.000250
   8 H    0.020791    0.000397
   9 H    0.031540    0.028617
  10 H    0.027437    0.045263
  11 H    0.022169    0.045204
  12 H    0.027466    0.047316
  13 H    0.026207    0.028175
  14 H    0.030538    0.000131
  15 H    0.031657    0.000808

  TOTAL  -0.000036    1.000007

-------
TIMINGS
-------

Total SCF time: 0 days 0 hours 0 min 8 sec 

Total time                  ....       8.381 sec
Sum of individual times     ....       8.191 sec  ( 97.7%)

Fock matrix formation       ....       7.129 sec  ( 85.1%)
  Split-RI-J                ....       0.715 sec  ( 10.0% of F)
  Chain of spheres X        ....       4.692 sec  ( 65.8% of F)
  XC integration            ....       1.667 sec  ( 23.4% of F)
    Basis function eval.    ....       0.448 sec  ( 26.9% of XC)
    Density eval.           ....       0.438 sec  ( 26.3% of XC)
    XC-Functional eval.     ....       0.143 sec  (  8.6% of XC)
    XC-Potential eval.      ....       0.501 sec  ( 30.1% of XC)
Diagonalization             ....       0.120 sec  (  1.4%)
Density matrix formation    ....       0.006 sec  (  0.1%)
Population analysis         ....       0.170 sec  (  2.0%)
Initial guess               ....       0.110 sec  (  1.3%)
Orbital Transformation      ....       0.000 sec  (  0.0%)
Orbital Orthonormalization  ....       0.000 sec  (  0.0%)
DIIS solution               ....       0.078 sec  (  0.9%)
Grid generation             ....       0.577 sec  (  6.9%)

Maximum memory used throughout the entire SCF-calculation: 52.0 MB


-------------------------------------------------------------------------------
                          DFT DISPERSION CORRECTION                            
                                                                               
                              DFTD3 V3.1  Rev 1                                
                          USING Becke-Johnson damping                          
-------------------------------------------------------------------------------
The PBE0 functional is recognized
Active option DFTDOPT                   ...         4   

molecular C6(AA) [au] = 1951.303224 


            DFT-D V3
 parameters
 s6 scaling factor         :     1.0000 
 a1 scaling factor         :     0.4145 
 s8 scaling factor         :     1.2177 
 a2 scaling factor         :     4.8593 
 ad hoc parameters k1-k3   :    16.0000     1.3333    -4.0000 

 Edisp/kcal,au: -7.060569421075  -0.011251732380 
 E6   /kcal   :  -4.545134432 
 E8   /kcal   :  -2.515434989 
 % E8         :  35.626517339 

-------------------------   ----------------
Dispersion correction           -0.011251732
-------------------------   ----------------


-------------------------   --------------------
FINAL SINGLE POINT ENERGY      -345.604122000582
-------------------------   --------------------



           ************************************************************
           *        Program running with 8 parallel MPI-processes     *
           *              working on a common directory               *
           ************************************************************
------------------------------------------------------------------------------
                         ORCA SCF GRADIENT CALCULATION
------------------------------------------------------------------------------

 ... reading COSX grid (gridx3)
Gradient of the Kohn-Sham DFT energy:
Kohn-Sham wavefunction type      ... UKS
Hartree-Fock exchange scaling    ...    0.250
Number of operators              ...    2
Number of atoms                  ...   16
Basis set dimensions             ...  143
Integral neglect threshold       ... 2.5e-11
Integral primitive cutoff        ... 2.5e-12
SHARK Integral package           ... ON

Nuc. rep. gradient       (SHARK) ... done (  0.0 sec)
HCore & Overlap gradient (SHARK) ... done (  0.0 sec)
[...]
UseSFitting                                  ... on

Time for X-Grid setup             =    0.196 sec

--------------
SCF ITERATIONS
--------------
ITER       Energy         Delta-E        Max-DP      RMS-DP      [F,P]     Damp
               ***  Starting incremental Fock matrix formation  ***
  0   -345.5826997384   0.000000000000 0.01776492  0.00022891  0.0363174 0.7000
  1   -345.5861433130  -0.003443574602 0.01565859  0.00019892  0.0270316 0.7000
                               ***Turning on DIIS***
  2   -345.5887767012  -0.002633388225 0.03945370  0.00050590  0.0198670 0.0000
  3   -345.5953870750  -0.006610373741 0.00282718  0.00006597  0.0023319 0.0000
  4   -345.5954839940  -0.000096919080 0.00130376  0.00003043  0.0010534 0.0000
  5   -345.5955005070  -0.000016512989 0.00122519  0.00002311  0.0005840 0.0000
               *** Restarting incremental Fock matrix formation ***
                                   *** Resetting DIIS ***
  6   -345.5955062833  -0.000005776324 0.00051893  0.00001162  0.0003719 0.0000
  7   -345.5955050683   0.000001215066 0.00032647  0.00000716  0.0006685 0.0000
  8   -345.5955071057  -0.000002037419 0.00003202  0.00000107  0.0000242 0.0000
  9   -345.5955071130  -0.000000007272 0.00001831  0.00000053  0.0000243 0.0000
 10   -345.5955071182  -0.000000005203 0.00000451  0.00000016  0.0000050 0.0000
 11   -345.5955071158   0.000000002337 0.00000168  0.00000006  0.0000010 0.0000
                            ***DIIS convergence achieved***

               *****************************************************
               *                     SUCCESS                       *
               *           SCF CONVERGED AFTER  12 CYCLES          *
               *****************************************************

Old exchange energy                            =    -11.369012721 Eh
New exchange energy                            =    -11.368996113 Eh
Exchange energy change after final integration =      0.000016608 Eh
Total energy after final integration           =   -345.595490509 Eh
Final COS-X integration done in                =     0.782 sec
Total Energy       :         -345.59549051 Eh           -9404.13139 eV
  Last Energy change         ...   -9.7043e-10  Tolerance :   1.0000e-08
  Last MAX-Density change    ...    0.0000e+00  Tolerance :   1.0000e-07
             **** THE GBW FILE WAS UPDATED (r0_C5H9O2_conf1_opt_orca.gbw) ****
             **** DENSITY r0_C5H9O2_conf1_opt_orca.scfp WAS UPDATED ****
             **** ENERGY FILE WAS UPDATED (r0_C5H9O2_conf1_opt_orca.en.tmp) ****
----------------------
UHF SPIN CONTAMINATION
----------------------

Warning: in a DFT calculation there is little theoretical justification to 
         calculate <S**2> as in Hartree-Fock theory. We will do it anyways
         but you should keep in mind that the values have only limited relevance

Expectation value of <S**2>     :     0.755092
Ideal value S*(S+1) for S=0.5   :     0.750000
Deviation                       :     0.005092

             **** THE GBW FILE WAS UPDATED (r0_C5H9O2_conf1_opt_orca.gbw) ****
             **** DENSITY r0_C5H9O2_conf1_opt_orca.scfp WAS UPDATED ****
Total SCF time: 0 days 0 hours 0 min 6 sec 

Maximum memory used throughout the entire SCF-calculation: 51.9 MB


-------------------------------------------------------------------------------
                          DFT DISPERSION CORRECTION                            
                                                                               
                              DFTD3 V3.1  Rev 1                                
                          USING Becke-Johnson damping                          
-------------------------------------------------------------------------------
-------------------------   ----------------
Dispersion correction           -0.011382220
-------------------------   ----------------


-------------------------   --------------------
FINAL SINGLE POINT ENERGY      -345.606872729467
-------------------------   --------------------



           ************************************************************
           *        Program running with 8 parallel MPI-processes     *
           *              working on a common directory               *
           ************************************************************
------------------------------------------------------------------------------
                         ORCA SCF GRADIENT CALCULATION
------------------------------------------------------------------------------

 ... reading COSX grid (gridx3)
Gradient of the Kohn-Sham DFT energy:
Kohn-Sham wavefunction type      ... UKS
Hartree-Fock exchange scaling    ...    0.250
Number of operators              ...    2
Number of atoms                  ...   16
Basis set dimensions             ...  143
Integral neglect threshold       ... 2.5e-11
Integral primitive cutoff        ... 2.5e-12
SHARK Integral package           ... ON

Nuc. rep. gradient       (SHARK) ... done (  0.0 sec)
HCore & Overlap gradient (SHARK) ... done (  0.0 sec)
RI-J gradient            (SHARK) ... done (  0.1 sec)
COSX-gradient                    ... done (  1.1 sec)
Exchange-correlation gradient    ... done
Dispersion correction            ... done

------------------
CARTESIAN GRADIENT
------------------

   1   O   :   -0.000397925    0.001612495   -0.001953866
   2   O   :    0.000484213   -0.000874097   -0.000160636
   3   C   :    0.000786295   -0.000660988   -0.001574323
   4   C   :    0.001284780   -0.002029174    0.003593592
   5   C   :    0.001686868    0.000996662   -0.000774257
   6   C   :   -0.004113713   -0.000022883   -0.000804682
   7   C   :    0.003625573    0.003212111   -0.000298286
   8   H   :   -0.000753229   -0.000440871    0.000358047
   9   H   :    0.000420592   -0.000731066    0.000850460
  10   H   :   -0.001371524    0.000209307    0.000693417
  11   H   :   -0.000145269    0.002095519   -0.001805327
  12   H   :   -0.000879052   -0.000171836    0.000343602
  13   H   :    0.001519299   -0.001067505    0.000681841
  14   H   :   -0.000185668   -0.000372851   -0.000554095
  15   H   :   -0.000923948    0.000446508    0.001182872
  16   H   :   -0.001333534   -0.002331207    0.000249867

Difference to translation invariance:
           :   -0.0002962429   -0.0001298747    0.0000282281

Difference to rotation invariance:
           :   -0.0001799075   -0.0005306918   -0.0003415210

Norm of the cartesian gradient     ...    0.0101399918
RMS gradient                       ...    0.0014635817
MAX gradient                       ...    0.0041137131

-------
TIMINGS
-------

Total SCF gradient time            ...        2.028 sec

One electron gradient       ....       0.020 sec  (  1.0%)
RI-J Coulomb gradient       ....       0.138 sec  (  6.8%)
COSX gradient               ....       1.071 sec  ( 52.8%)
XC gradient                 ....       0.587 sec  ( 28.9%)

Maximum memory used throughout the entire SCFGRAD-calculation: 39.7 MB
------------------------------------------------------------------------------
                         ORCA GEOMETRY RELAXATION STEP
------------------------------------------------------------------------------

Reading the OPT-File                    .... done
Getting information on internals        .... done
Copying old internal coords+grads       .... done
Making the new internal coordinates     .... (new redundants).... done
Validating the new internal coordinates .... (new redundants).... done
Calculating the B-matrix                .... done
Calculating the G,G- and P matrices     .... done
Transforming gradient to internals      .... done
Projecting the internal gradient        .... done
Number of atoms                         ....  16
Number of internal coordinates          ....  88
Current Energy                          ....  -345.606872729 Eh
Current gradient norm                   ....     0.010139992 Eh/bohr
Maximum allowed component of the step   ....  0.300
Current trust radius                    ....  0.300
Updating the Hessian (BFGS)             .... done
Forming the augmented Hessian           .... done
Diagonalizing the augmented Hessian     .... done
Last element of RFO vector              ....  0.972905442
Lowest eigenvalues of augmented Hessian:
 -0.000420933  0.002403822  0.003340202  0.013366400  0.015169143
Length of the computed step             ....  0.237642184
The final length of the internal step   ....  0.237642184
Converting the step to cartesian space:
 Initial RMS(Int)=    0.0253327420
Transforming coordinates:
 Iter   0:  RMS(Cart)=    0.0330598497 RMS(Int)=    0.0253532490
 Iter   1:  RMS(Cart)=    0.0009289297 RMS(Int)=    0.0007123881
 Iter   2:  RMS(Cart)=    0.0000640161 RMS(Int)=    0.0000341729
 Iter   3:  RMS(Cart)=    0.0000052488 RMS(Int)=    0.0000040935
 Iter   4:  RMS(Cart)=    0.0000004142 RMS(Int)=    0.0000002096
 Iter   5:  RMS(Cart)=    0.0000000339 RMS(Int)=    0.0000000262
done
Storing new coordinates                 .... done

                                .--------------------.
          ----------------------|Geometry convergence|-------------------------
          Item                value                   Tolerance       Converged
          ---------------------------------------------------------------------
          Energy change      -0.0001082163            0.0000300000      NO
          RMS gradient        0.0007811731            0.0005000000      NO
          MAX gradient        0.0031959644            0.0020000000      NO
          RMS step            0.0253327420            0.0070000000      NO
          MAX step            0.0992874093            0.0100000000      NO
          ........................................................
          Max(Bonds)      0.0030      Max(Angles)    1.06
          Max(Dihed)        5.69      Max(Improp)    0.00
          ---------------------------------------------------------------------

The optimization has not yet converged - more geometry cycles are needed


    ---------------------------------------------------------------------------
                         Redundant Internal Coordinates
                            (Angstroem and degrees)

        Definition                    Value    dE/dq     Step     New-Value
    ----------------------------------------------------------------------------
     1. B(O   1,O   0)                1.4135 -0.001973  0.0028    1.4163   
     2. B(C   2,O   1)                1.4137 -0.001704  0.0014    1.4151   
     3. B(C   3,C   2)                1.5341  0.000672 -0.0003    1.5338   
     4. B(C   4,C   3)                1.4909 -0.000432  0.0027    1.4936   
     5. B(C   5,C   4)                1.4896 -0.001347  0.0030    1.4925   
     6. B(C   6,C   5)                1.5387  0.001132  0.0000    1.5387   
     7. B(C   6,C   2)                1.5279  0.000959 -0.0014    1.5265   
     8. B(H   7,O   0)                0.9671 -0.000852  0.0012    0.9683   
     9. B(H   8,C   2)                1.1056 -0.000112  0.0009    1.1065   
    10. B(H   9,C   3)                1.1008 -0.000110  0.0009    1.1017   
    11. B(H  10,C   3)                1.1114  0.000652 -0.0005    1.1109   
    12. B(H  11,C   4)                1.0929  0.000919  0.0009    1.0938   
    13. B(H  12,C   5)                1.1095  0.000588  0.0001    1.1096   
    14. B(H  13,C   5)                1.1035  0.000121  0.0006    1.1041   
    15. B(H  14,C   6)                1.0988 -0.000142  0.0014    1.1002   
    16. B(H  15,C   6)                1.1023  0.000430 -0.0000    1.1022   
    17. A(O   1,O   0,H   7)          101.31  0.000571   -0.15    101.16   
    18. A(O   0,O   1,C   2)          107.93 -0.003196    0.21    108.14   
    19. A(O   1,C   2,H   8)          108.80 -0.000751    0.46    109.26   
    20. A(C   3,C   2,H   8)          112.64  0.000330   -0.33    112.31   
    21. A(O   1,C   2,C   6)          105.35  0.000436   -0.09    105.26   
    22. A(C   3,C   2,C   6)          103.83 -0.000956    0.41    104.24   
    23. A(O   1,C   2,C   3)          112.05  0.000113    0.02    112.07   
    24. A(C   6,C   2,H   8)          113.93  0.000871   -0.48    113.46   
    25. A(C   2,C   3,H   9)          112.29  0.000905   -0.93    111.36   
    26. A(C   4,C   3,H   9)          114.56 -0.000805   -0.23    114.33   
    27. A(C   4,C   3,H  10)          111.09 -0.000591    0.67    111.76   
    28. A(H   9,C   3,H  10)          107.15  0.001039   -0.52    106.63   
    29. A(C   2,C   3,C   4)          103.81  0.000748    0.14    103.95   
    30. A(C   2,C   3,H  10)          107.82 -0.001411    0.96    108.77   
    31. A(C   5,C   4,H  11)          124.16 -0.000277    0.02    124.19   
    32. A(C   3,C   4,H  11)          124.28 -0.000078   -0.12    124.16   
    33. A(C   3,C   4,C   5)          111.50  0.000375    0.03    111.53   
    34. A(C   4,C   5,C   6)          103.31 -0.000075   -0.02    103.29   
    35. A(H  12,C   5,H  13)          106.99  0.000811   -0.41    106.57   
    36. A(C   6,C   5,H  13)          112.94 -0.000035   -0.20    112.74   
    37. A(C   4,C   5,H  13)          113.91 -0.000236   -0.13    113.79   
    38. A(C   6,C   5,H  12)          109.41 -0.000451    0.39    109.80   
    39. A(C   4,C   5,H  12)          110.26 -0.000081    0.43    110.69   
    40. A(H  14,C   6,H  15)          109.20  0.001099   -0.31    108.89   
    41. A(C   5,C   6,H  15)          109.54 -0.000966    0.72    110.26   
    42. A(C   2,C   6,H  15)          107.06 -0.000796    0.83    107.89   
    43. A(C   5,C   6,H  14)          113.79 -0.000399   -0.38    113.41   
    44. A(C   2,C   6,H  14)          112.66  0.000563   -1.06    111.60   
    45. A(C   2,C   6,C   5)          104.30  0.000378    0.33    104.63   
    46. D(C   2,O   1,O   0,H   7)    107.44 -0.000038    5.69    113.13   
    47. D(C   6,C   2,O   1,O   0)    176.89 -0.000431   -0.36    176.53   
    48. D(C   3,C   2,O   1,O   0)     64.64  0.000400   -0.79     63.84   
    49. D(H   8,C   2,O   1,O   0)    -60.58  0.000448   -0.72    -61.30   
    50. D(H  10,C   3,C   2,H   8)    -35.24 -0.000933    3.18    -32.05   
    51. D(C   4,C   3,C   2,H   8)   -153.15  0.000005    1.90   -151.26   
    52. D(C   4,C   3,C   2,C   6)    -29.42  0.000626    1.40    -28.02   
    53. D(H   9,C   3,C   2,H   8)     82.56 -0.000028    2.60     85.16   
    54. D(H  10,C   3,C   2,C   6)     88.50 -0.000312    2.68     91.18   
    55. D(H  10,C   3,C   2,O   1)   -158.31 -0.000277    2.81   -155.50   
    56. D(C   4,C   3,C   2,O   1)     83.78  0.000661    1.52     85.30   
    57. D(H   9,C   3,C   2,O   1)    -40.51  0.000628    2.22    -38.29   
    58. D(H   9,C   3,C   2,C   6)   -153.71  0.000593    2.10   -151.61   
    59. D(C   5,C   4,C   3,H   9)    133.94  0.001049   -2.37    131.57   
    60. D(C   5,C   4,C   3,C   2)     11.14 -0.000131   -1.19      9.95   
    61. D(H  11,C   4,C   3,H  10)     78.23  0.000945   -0.85     77.38   
    62. D(H  11,C   4,C   3,H   9)    -43.35  0.000619   -0.51    -43.86   
    63. D(H  11,C   4,C   3,C   2)   -166.15 -0.000562    0.67   -165.48   
    64. D(C   5,C   4,C   3,H  10)   -104.48  0.001375   -2.70   -107.19   
    65. D(H  13,C   5,C   4,H  11)    -48.30  0.000067   -1.76    -50.05   
    66. D(H  13,C   5,C   4,C   3)    134.41 -0.000370    0.10    134.51   
    67. D(H  12,C   5,C   4,H  11)     71.99  0.000893   -2.07     69.92   
    68. D(H  12,C   5,C   4,C   3)   -105.30  0.000457   -0.21   -105.52   
    69. D(C   6,C   5,C   4,C   3)     11.52 -0.000142    0.43     11.95   
    70. D(C   6,C   5,C   4,H  11)   -171.19  0.000295   -1.42   -172.61   
    71. D(H  14,C   6,C   2,C   3)    160.91 -0.000809   -1.96    158.94   
    72. D(H  14,C   6,C   2,O   1)     42.96 -0.000698   -2.12     40.84   
    73. D(C   5,C   6,C   2,H   8)    159.91 -0.000646   -1.50    158.41   
    74. D(C   5,C   6,C   2,C   3)     37.02 -0.000902   -1.09     35.93   
    75. D(H  14,C   6,C   2,H   8)    -76.21 -0.000553   -2.37    -78.58   
    76. D(C   5,C   6,C   2,O   1)    -80.92 -0.000791   -1.25    -82.17   
    77. D(H  15,C   6,C   5,H  12)   -157.99 -0.001161    2.58   -155.41   
    78. D(H  15,C   6,C   5,C   4)     84.59 -0.000827    1.91     86.49   
    79. D(H  14,C   6,C   5,H  13)     83.59 -0.000045    2.06     85.66   
    80. D(H  14,C   6,C   5,H  12)    -35.45 -0.000738    2.45    -33.00   
    81. D(H  14,C   6,C   5,C   4)   -152.87 -0.000403    1.78   -151.09   
    82. D(C   2,C   6,C   5,H  13)   -153.26  0.000680    0.74   -152.52   
    83. D(C   2,C   6,C   5,H  12)     87.70 -0.000012    1.13     88.83   
    84. D(C   2,C   6,C   5,C   4)    -29.73  0.000322    0.46    -29.27   
    85. D(H  15,C   6,C   2,H   8)     43.85  0.000617   -2.84     41.02   
    86. D(H  15,C   6,C   2,C   3)    -79.03  0.000361   -2.43    -81.46   
    87. D(H  15,C   6,C   5,H  13)    -38.95 -0.000469    2.19    -36.76   
    88. D(H  15,C   6,C   2,O   1)    163.03  0.000472   -2.59    160.44   
    ----------------------------------------------------------------------------




    ----------------------------------------------------------------------------
                                  WARNING !!!
       The optimization did not converge but reached the maximum number of
       optimization cycles.
       Please check your results very carefully.
    ----------------------------------------------------------------------------



                            ***************************************
                            *     ORCA property calculations      *
                            ***************************************

                                    ---------------------
                                    Active property flags
                                    ---------------------
   (+) Dipole Moment


------------------------------------------------------------------------------
                       ORCA ELECTRIC PROPERTIES CALCULATION
------------------------------------------------------------------------------

Dipole Moment Calculation                       ... on
Quadrupole Moment Calculation                   ... off
Polarizability Calculation                      ... off
GBWName                                         ... r0_C5H9O2_conf1_opt_orca.gbw
Electron density                                ... r0_C5H9O2_conf1_opt_orca.scfp
The origin for moment calculation is the CENTER OF MASS  = ( 0.547633, -0.190682  0.375887)

-------------
DIPOLE MOMENT
-------------
                                X             Y             Z
Electronic contribution:      3.87095      -1.71328       1.24355
Nuclear contribution   :     -3.64268       1.33296      -2.77373
                        -----------------------------------------
Total Dipole Moment    :      0.22827      -0.38032      -1.53017
                        -----------------------------------------
Magnitude (a.u.)       :      1.59317
Magnitude (Debye)      :      4.04951



--------------------
Rotational spectrum 
--------------------
 
Rotational constants in cm-1:     0.163572     0.070105     0.060299 
Rotational constants in MHz :  4903.778170  2101.684198  1807.719200 

 Dipole components along the rotational axes: 
x,y,z [a.u.] :     0.007251     0.181313    -1.582801 
x,y,z [Debye]:     0.018430     0.460860    -4.023161 

 

Timings for individual modules:

Sum of individual times         ...      100.467 sec (=   1.674 min)
GTO integral calculation        ...        6.635 sec (=   0.111 min)   6.6 %
SCF iterations                  ...       69.181 sec (=   1.153 min)  68.9 %
SCF Gradient evaluation         ...       24.063 sec (=   0.401 min)  24.0 %
Geometry relaxation             ...        0.588 sec (=   0.010 min)   0.6 %
                             ****ORCA TERMINATED NORMALLY****
TOTAL RUN TIME: 0 days 0 hours 1 minutes 44 seconds 583 msec
