      -----------------------------------------------------------      
     |                   =====================                   |     
     |                           x T B                           |     
     |                   =====================                   |     
     |                         S. Grimme                         |     
     |          Mulliken Center for Theoretical Chemistry        |     
     |                    University of Bonn                     |     
      -----------------------------------------------------------      

   * xtb version 6.6.1 (8d0f1dd) compiled by 'conda@1efc2f54142f' on 2023-08-01

   xtb is free software: you can redistribute it and/or modify it under
   the terms of the GNU Lesser General Public License as published by
   the Free Software Foundation, either version 3 of the License, or
   (at your option) any later version.
   
   xtb is distributed in the hope that it will be useful,
   but WITHOUT ANY WARRANTY; without even the implied warranty of
   MERCHANTABILITY or FITNESS FOR A PARTICULAR PURPOSE.  See the
   GNU Lesser General Public License for more details.
   
   Cite this work as:
   * C. Bannwarth, E. Caldeweyher, S. Ehlert, A. Hansen, P. Pracht,
     J. Seibert, S. Spicher, S. Grimme, WIREs Comput. Mol. Sci., 2020, 11,
     e01493. DOI: 10.1002/wcms.1493
   
   for GFN2-xTB:
   * C. Bannwarth, S. Ehlert and S. Grimme., J. Chem. Theory Comput., 2019,
     15, 1652-1671. DOI: 10.1021/acs.jctc.8b01176
   for GFN1-xTB:
   * S. Grimme, C. Bannwarth, P. Shushkov, J. Chem. Theory Comput., 2017,
     13, 1989-2009. DOI: 10.1021/acs.jctc.7b00118
   for GFN0-xTB:
   * P. Pracht, E. Caldeweyher, S. Ehlert, S. Grimme, ChemRxiv, 2019, preprint.
     DOI: 10.26434/chemrxiv.8326202.v1
   for GFN-FF:
   * S. Spicher and S. Grimme, Angew. Chem. Int. Ed., 2020, 59, 15665-15673.
     DOI: 10.1002/anie.202004239
   
   for ALPB and GBSA implicit solvation:
   * S. Ehlert, M. Stahn, S. Spicher, S. Grimme, J. Chem. Theory Comput.,
     2021, 17, 4250-4261. DOI: 10.1021/acs.jctc.1c00471
   
   for DFT-D4:
   * E. Caldeweyher, C. Bannwarth and S. Grimme, J. Chem. Phys., 2017,
     147, 034112. DOI: 10.1063/1.4993215
   * E. Caldeweyher, S. Ehlert, A. Hansen, H. Neugebauer, S. Spicher,
     C. Bannwarth and S. Grimme, J. Chem. Phys., 2019, 150, 154122.
     DOI: 10.1063/1.5090222
   * E. Caldeweyher, J.-M. Mewes, S. Ehlert and S. Grimme, Phys. Chem. Chem. Phys.
     2020, 22, 8499-8512. DOI: 10.1039/D0CP00502A
   
   for sTDA-xTB:
   * S. Grimme and C. Bannwarth, J. Chem. Phys., 2016, 145, 054103.
     DOI: 10.1063/1.4959605
   
   in the mass-spec context:
   * V. Asgeirsson, C. Bauer and S. Grimme, Chem. Sci., 2017, 8, 4879.
     DOI: 10.1039/c7sc00601b
   * J. Koopman and S. Grimme, ACS Omega 2019, 4, 12, 15120-15133.
     DOI: 10.1021/acsomega.9b02011
   
   for metadynamics refer to:
   * S. Grimme, J. Chem. Theory Comput., 2019, 155, 2847-2862
     DOI: 10.1021/acs.jctc.9b00143
   
   for SPH calculations refer to:
   * S. Spicher and S. Grimme, J. Chem. Theory Comput., 2021, 17, 1701-1714
     DOI: 10.1021/acs.jctc.0c01306
   
   with help from (in alphabetical order)
   P. Atkinson, C. Bannwarth, F. Bohle, G. Brandenburg, E. Caldeweyher
   M. Checinski, S. Dohm, S. Ehlert, S. Ehrlich, I. Gerasimov, C. Hölzer
   A. Katbashev, J. Koopman, C. Lavigne, S. Lehtola, F. März, M. Müller,
   F. Musil, H. Neugebauer, J. Pisarek, C. Plett, P. Pracht, F. Pultar,
   J. Seibert, P. Shushkov, S. Spicher, M. Stahn, M. Steiner, T. Strunk,
   J. Stückrath, T. Rose, and J. Unsleber
   
 * started run on 2025/05/23 at 13:07:09.342     

           -------------------------------------------------
          |                Calculation Setup                |
           -------------------------------------------------

          program call               : /gpfs/fs1/home/copan/code/autode-practice/.pixi/envs/default/bin/xtb r0_C5H9O2_conf0_opt_xtb.xyz --chrg 0 --uhf 1 --opt
          hostname                   : csed-0021
          coordinate file            : r0_C5H9O2_conf0_opt_xtb.xyz
          omp threads                :                     4

   ID    Z sym.   atoms
    1    8 O      1, 2
    2    6 C      3-7
    3    1 H      8-16

           -------------------------------------------------
          |                 G F N 2 - x T B                 |
           -------------------------------------------------

        Reference                      10.1021/acs.jctc.8b01176
      * Hamiltonian:
        H0-scaling (s, p, d)           1.850000    2.230000    2.230000
        zeta-weighting                 0.500000
      * Dispersion:
        s8                             2.700000
        a1                             0.520000
        a2                             5.000000
        s9                             5.000000
      * Repulsion:
        kExp                           1.500000    1.000000
        rExp                           1.000000
      * Coulomb:
        alpha                          2.000000
        third order                    shell-resolved
        anisotropic                    true
        a3                             3.000000
        a5                             4.000000
        cn-shift                       1.200000
        cn-exp                         4.000000
        max-rad                        5.000000


          ...................................................
          :                      SETUP                      :
          :.................................................:
          :  # basis functions                  37          :
          :  # atomic orbitals                  37          :
          :  # shells                           23          :
          :  # electrons                        41          :
          :  max. iterations                   250          :
          :  Hamiltonian                  GFN2-xTB          :
          :  restarted?                      false          :
          :  GBSA solvation                  false          :
          :  PC potential                    false          :
          :  electronic temp.          300.0000000     K    :
          :  accuracy                    1.0000000          :
          :  -> integral cutoff          0.2500000E+02      :
          :  -> integral neglect         0.1000000E-07      :
          :  -> SCF convergence          0.1000000E-05 Eh   :
          :  -> wf. convergence          0.1000000E-03 e    :
          :  Broyden damping             0.4000000          :
          ...................................................

 iter      E             dE          RMSdq      gap      omega  full diag
   1    -23.4387275 -0.234387E+02  0.384E+00    7.67       0.0  T
   2    -23.4589987 -0.202712E-01  0.227E+00    7.59       1.0  T
   3    -23.4595854 -0.586698E-03  0.607E-01    7.24       1.0  T
   4    -23.4602874 -0.701940E-03  0.142E-01    6.98       1.0  T
   5    -23.4603918 -0.104498E-03  0.692E-02    7.06       1.0  T
   6    -23.4603972 -0.533746E-05  0.178E-02    7.09       1.4  T
   7    -23.4603979 -0.726669E-06  0.805E-03    7.10       3.1  T
   8    -23.4603981 -0.188265E-06  0.291E-03    7.09       8.6  T
   9    -23.4603981 -0.212350E-07  0.120E-03    7.09      20.8  T
  10    -23.4603981 -0.658891E-08  0.461E-04    7.09      54.2  T
  11    -23.4603981 -0.115925E-08  0.222E-04    7.09     112.7  T

   *** convergence criteria satisfied after 11 iterations ***

         #    Occupation            Energy/Eh            Energy/eV
      -------------------------------------------------------------
         1        2.0000           -0.7410810             -20.1658
       ...           ...                  ...                  ...
        15        2.0000           -0.4684762             -12.7479
        16        2.0000           -0.4550412             -12.3823
        17        2.0000           -0.4489852             -12.2175
        18        2.0000           -0.4448117             -12.1039
        19        2.0000           -0.4322973             -11.7634
        20        2.0000           -0.4085653             -11.1176
        21        1.0000           -0.3248946              -8.8408 (HOMO)
        22                         -0.0643243              -1.7504 (LUMO)
        23                          0.0444008               1.2082
        24                          0.0648312               1.7641
        25                          0.0830074               2.2587
        26                          0.0938501               2.5538
       ...                                ...                  ...
        37                          0.3234757               8.8022
      -------------------------------------------------------------
                  HL-Gap            0.2605704 Eh            7.0905 eV
             Fermi-level           -0.2806697 Eh           -7.6374 eV

 SCC (total)                   0 d,  0 h,  0 min,  0.010 sec
 SCC setup                      ...        0 min,  0.000 sec (  3.550%)
 Dispersion                     ...        0 min,  0.000 sec (  2.069%)
 classical contributions        ...        0 min,  0.000 sec (  0.850%)
 integral evaluation            ...        0 min,  0.001 sec (  7.114%)
 iterations                     ...        0 min,  0.007 sec ( 71.261%)
 molecular gradient             ...        0 min,  0.001 sec ( 13.055%)
 printout                       ...        0 min,  0.000 sec (  1.883%)

         :::::::::::::::::::::::::::::::::::::::::::::::::::::
         ::                     SUMMARY                     ::
         :::::::::::::::::::::::::::::::::::::::::::::::::::::
         :: total energy             -23.241119827435 Eh    ::
         :: gradient norm              0.115147621146 Eh/a0 ::
         :: HOMO-LUMO gap              7.090480741077 eV    ::
         ::.................................................::
         :: SCC energy               -23.460398131069 Eh    ::
         :: -> isotropic ES            0.027278198751 Eh    ::
         :: -> anisotropic ES         -0.001026529102 Eh    ::
         :: -> anisotropic XC         -0.002637202683 Eh    ::
         :: -> dispersion             -0.009876059610 Eh    ::
         :: repulsion energy           0.219256714745 Eh    ::
         :: add. restraining           0.000000000000 Eh    ::
         :: total charge              -0.000000000000 e     ::
         :::::::::::::::::::::::::::::::::::::::::::::::::::::

      ----------------------------------------------------------- 
     |                   =====================                   |
     |                        A N C O P T                        |
     |                   =====================                   |
     |               Approximate Normal Coordinate               |
     |                Rational Function Optimizer                |
      ----------------------------------------------------------- 

          ...................................................
          :                      SETUP                      :
          :.................................................:
          :   optimization level            normal          :
          :   max. optcycles                   200          :
          :   ANC micro-cycles                  20          :
          :   degrees of freedom                42          :
          :.................................................:
          :   RF solver                   davidson          :
          :   write xtbopt.log                true          :
          :   linear?                        false          :
          :   energy convergence         0.5000000E-05 Eh   :
          :   grad. convergence          0.1000000E-02 Eh/α :
          :   maxmium RF displ.          1.0000000          :
          :   Hlow (freq-cutoff)         0.1000000E-01      :
          :   Hmax (freq-cutoff)         5.0000000          :
          :   S6 in model hess.         20.0000000          :
          ...................................................

generating ANC from model Hessian ...
Using Lindh-Hessian (1995)
 Shifting diagonal of input Hessian by    3.5431671017941025E-003
 Lowest  eigenvalues of input Hessian
    0.000000    0.000000    0.000000    0.000000    0.000000    0.000000
    0.010000    0.010582    0.015491    0.018934    0.027665    0.042780
    0.044259    0.046944    0.051009    0.053406    0.054381    0.056553
 Highest eigenvalues
    1.184835    1.246060    1.268541    1.280153    1.459334    1.707339


........................................................................
.............................. CYCLE    1 ..............................
........................................................................

 iter      E             dE          RMSdq      gap      omega  full diag
   1    -23.4603981 -0.234604E+02  0.695E-05    7.09       0.0  T
   2    -23.4603981 -0.172626E-10  0.431E-05    7.09     579.8  T
   3    -23.4603981 -0.402878E-11  0.255E-05    7.09     978.8  T
     SCC iter.                  ...        0 min,  0.002 sec
     gradient                   ...        0 min,  0.001 sec
 * total energy  :   -23.2411198 Eh     change       -0.2876526E-09 Eh
   gradient norm :     0.1151475 Eh/α   predicted     0.0000000E+00 (-100.00%)
   displ. norm   :     0.4459897 α      lambda       -0.2880929E-01
   maximum displ.:     0.1938524 α      in ANC's #16, #2, #19, ...

........................................................................
.............................. CYCLE    2 ..............................
........................................................................

 iter      E             dE          RMSdq      gap      omega  full diag
   1    -23.4848063 -0.234848E+02  0.477E-01    5.30       0.0  T
   2    -23.4849209 -0.114644E-03  0.286E-01    5.38       1.0  T
   3    -23.4849285 -0.753688E-05  0.501E-02    5.46       1.0  T
   4    -23.4849427 -0.142119E-04  0.181E-02    5.45       1.4  T
   5    -23.4849438 -0.111909E-05  0.622E-03    5.44       4.0  T
   6    -23.4849439 -0.135970E-06  0.360E-03    5.44       6.9  T
   7    -23.4849440 -0.702138E-07  0.160E-03    5.44      15.6  T
   8    -23.4849440 -0.154832E-07  0.599E-04    5.44      41.7  T
   9    -23.4849440 -0.131280E-08  0.202E-04    5.44     123.5  T
     SCC iter.                  ...        0 min,  0.004 sec
     gradient                   ...        0 min,  0.001 sec
 * total energy  :   -23.2604350 Eh     change       -0.1931518E-01 Eh
   gradient norm :     0.0457442 Eh/α   predicted    -0.1726984E-01 ( -10.59%)
   displ. norm   :     0.4236371 α      lambda       -0.8263441E-02
   maximum displ.:     0.2552609 α      in ANC's #1, #2, #6, ...

........................................................................
.............................. CYCLE    3 ..............................
........................................................................

 iter      E             dE          RMSdq      gap      omega  full diag
   1    -23.4933398 -0.234933E+02  0.336E-01    4.47       0.0  T
   2    -23.4933861 -0.463544E-04  0.201E-01    4.53       1.0  T
   3    -23.4933878 -0.170023E-05  0.328E-02    4.57       1.0  T
   4    -23.4933950 -0.717966E-05  0.113E-02    4.57       2.2  T
   5    -23.4933954 -0.422002E-06  0.449E-03    4.56       5.6  T
   6    -23.4933955 -0.732300E-07  0.253E-03    4.56       9.9  T
   7    -23.4933956 -0.357303E-07  0.106E-03    4.56      23.7  T
   8    -23.4933956 -0.696253E-08  0.430E-04    4.56      58.2  T
   9    -23.4933956 -0.731529E-09  0.149E-04    4.56     168.1  T
     SCC iter.                  ...        0 min,  0.004 sec
     gradient                   ...        0 min,  0.001 sec
 * total energy  :   -23.2660113 Eh     change       -0.5576267E-02 Eh
   gradient norm :     0.0218270 Eh/α   predicted    -0.4873225E-02 ( -12.61%)
   displ. norm   :     0.4199314 α      lambda       -0.3061591E-02
   maximum displ.:     0.2882840 α      in ANC's #1, #2, #4, ...

........................................................................
.............................. CYCLE    4 ..............................
........................................................................

 iter      E             dE          RMSdq      gap      omega  full diag
   1    -23.4947282 -0.234947E+02  0.229E-01    4.15       0.0  T
   2    -23.4947445 -0.163646E-04  0.136E-01    4.18       1.0  T
   3    -23.4947447 -0.121510E-06  0.206E-02    4.20       1.2  T
   4    -23.4947475 -0.284556E-05  0.644E-03    4.20       3.9  T
   5    -23.4947476 -0.117201E-06  0.324E-03    4.20       7.7  T
   6    -23.4947477 -0.385742E-07  0.152E-03    4.19      16.4  T
   7    -23.4947477 -0.121624E-07  0.693E-04    4.19      36.1  T
   8    -23.4947477 -0.294292E-08  0.278E-04    4.20      89.9  T
     SCC iter.                  ...        0 min,  0.004 sec
     gradient                   ...        0 min,  0.001 sec
 * total energy  :   -23.2683258 Eh     change       -0.2314504E-02 Eh
   gradient norm :     0.0216059 Eh/α   predicted    -0.1800731E-02 ( -22.20%)
   displ. norm   :     0.4467298 α      lambda       -0.2341862E-02
   maximum displ.:     0.3187750 α      in ANC's #1, #2, #4, ...

........................................................................
.............................. CYCLE    5 ..............................
........................................................................

 iter      E             dE          RMSdq      gap      omega  full diag
   1    -23.4962835 -0.234963E+02  0.227E-01    4.02       0.0  T
   2    -23.4962914 -0.798311E-05  0.134E-01    4.03       1.0  T
   3    -23.4962918 -0.344623E-06  0.139E-02    4.04       1.8  T
   4    -23.4962931 -0.133242E-05  0.500E-03    4.04       5.0  T
   5    -23.4962932 -0.560042E-07  0.248E-03    4.04      10.1  T
   6    -23.4962932 -0.201823E-07  0.100E-03    4.04      24.9  T
   7    -23.4962932 -0.477923E-08  0.546E-04    4.04      45.8  T
   8    -23.4962932 -0.176297E-08  0.203E-04    4.04     122.9  T
     SCC iter.                  ...        0 min,  0.004 sec
     gradient                   ...        0 min,  0.001 sec
 * total energy  :   -23.2701592 Eh     change       -0.1833404E-02 Eh
   gradient norm :     0.0187545 Eh/α   predicted    -0.1404612E-02 ( -23.39%)
   displ. norm   :     0.4850660 α      lambda       -0.2038765E-02
   maximum displ.:     0.3721116 α      in ANC's #1, #2, #8, ...

........................................................................
.............................. CYCLE    6 ..............................
........................................................................

 iter      E             dE          RMSdq      gap      omega  full diag
   1    -23.4977291 -0.234977E+02  0.275E-01    4.05       0.0  T
   2    -23.4977339 -0.476895E-05  0.163E-01    4.05       1.0  T
   3    -23.4977345 -0.636714E-06  0.958E-03    4.05       2.6  T
   4    -23.4977351 -0.607575E-06  0.427E-03    4.05       5.9  T
   5    -23.4977352 -0.330633E-07  0.189E-03    4.05      13.2  T
   6    -23.4977352 -0.949667E-08  0.667E-04    4.05      37.5  T
   7    -23.4977352 -0.191801E-08  0.391E-04    4.05      64.0  T
     SCC iter.                  ...        0 min,  0.003 sec
     gradient                   ...        0 min,  0.001 sec
 * total energy  :   -23.2716748 Eh     change       -0.1515591E-02 Eh
   gradient norm :     0.0201387 Eh/α   predicted    -0.1259234E-02 ( -16.91%)
   displ. norm   :     0.4467304 α      lambda       -0.1780857E-02
   maximum displ.:     0.3105783 α      in ANC's #1, #2, #4, ...

........................................................................
.............................. CYCLE    7 ..............................
........................................................................

 iter      E             dE          RMSdq      gap      omega  full diag
   1    -23.5038500 -0.235038E+02  0.224E-01    4.17       0.0  T
   2    -23.5038563 -0.630580E-05  0.134E-01    4.16       1.0  T
   3    -23.5038577 -0.147211E-05  0.105E-02    4.17       2.4  T
   4    -23.5038581 -0.391515E-06  0.543E-03    4.16       4.6  T
   5    -23.5038582 -0.565810E-07  0.253E-03    4.16       9.9  T
   6    -23.5038582 -0.208191E-07  0.889E-04    4.16      28.1  T
   7    -23.5038582 -0.360552E-08  0.514E-04    4.16      48.6  T
     SCC iter.                  ...        0 min,  0.003 sec
     gradient                   ...        0 min,  0.001 sec
 * total energy  :   -23.2727138 Eh     change       -0.1039011E-02 Eh
   gradient norm :     0.0160287 Eh/α   predicted    -0.1068128E-02 (   2.80%)
   displ. norm   :     0.5386218 α      lambda       -0.1653786E-02
   maximum displ.:     0.4115742 α      in ANC's #1, #2, #4, ...

........................................................................
.............................. CYCLE    8 ..............................
........................................................................

 iter      E             dE          RMSdq      gap      omega  full diag
   1    -23.5018219 -0.235018E+02  0.372E-01    4.19       0.0  T
   2    -23.5018303 -0.836124E-05  0.221E-01    4.18       1.0  T
   3    -23.5018329 -0.261289E-05  0.131E-02    4.18       1.9  T
   4    -23.5018336 -0.755267E-06  0.735E-03    4.18       3.4  T
   5    -23.5018337 -0.119947E-06  0.306E-03    4.18       8.2  T
   6    -23.5018338 -0.339255E-07  0.127E-03    4.18      19.8  T
   7    -23.5018338 -0.822059E-08  0.575E-04    4.18      43.5  T
   8    -23.5018338 -0.175061E-08  0.277E-04    4.18      90.1  T
     SCC iter.                  ...        0 min,  0.004 sec
     gradient                   ...        0 min,  0.001 sec
 * total energy  :   -23.2731931 Eh     change       -0.4792910E-03 Eh
   gradient norm :     0.0247897 Eh/α   predicted    -0.1066789E-02 ( 122.58%)
   displ. norm   :     0.0862495 α      lambda       -0.8029161E-03
   maximum displ.:     0.0503351 α      in ANC's #2, #5, #4, ...

........................................................................
.............................. CYCLE    9 ..............................
........................................................................

 iter      E             dE          RMSdq      gap      omega  full diag
   1    -23.5034816 -0.235035E+02  0.627E-02    4.20       0.0  T
   2    -23.5034829 -0.128897E-05  0.371E-02    4.19       1.0  T
   3    -23.5034830 -0.142959E-06  0.530E-03    4.20       4.7  T
   4    -23.5034831 -0.136199E-06  0.205E-03    4.20      12.2  T
   5    -23.5034832 -0.708003E-08  0.930E-04    4.20      26.9  T
   6    -23.5034832 -0.179130E-08  0.327E-04    4.20      76.4  T
     SCC iter.                  ...        0 min,  0.003 sec
     gradient                   ...        0 min,  0.001 sec
 * total energy  :   -23.2736668 Eh     change       -0.4737361E-03 Eh
   gradient norm :     0.0109582 Eh/α   predicted    -0.4044433E-03 ( -14.63%)
   displ. norm   :     0.1766088 α      lambda       -0.3812127E-03
   maximum displ.:     0.1044426 α      in ANC's #1, #2, #4, ...

........................................................................
.............................. CYCLE   10 ..............................
........................................................................

 iter      E             dE          RMSdq      gap      omega  full diag
   1    -23.5070934 -0.235071E+02  0.989E-02    4.15       0.0  T
   2    -23.5070948 -0.142357E-05  0.594E-02    4.15       1.0  T
   3    -23.5070955 -0.637055E-06  0.550E-03    4.16       4.5  T
   4    -23.5070955 -0.836887E-07  0.324E-03    4.15       7.7  T
   5    -23.5070956 -0.272584E-07  0.135E-03    4.15      18.6  T
   6    -23.5070956 -0.800787E-08  0.561E-04    4.15      44.5  T
   7    -23.5070956 -0.159185E-08  0.290E-04    4.15      86.3  T
     SCC iter.                  ...        0 min,  0.003 sec
     gradient                   ...        0 min,  0.001 sec
 * total energy  :   -23.2738923 Eh     change       -0.2254583E-03 Eh
   gradient norm :     0.0056139 Eh/α   predicted    -0.1965500E-03 ( -12.82%)
   displ. norm   :     0.4602239 α      lambda       -0.4540201E-03
   maximum displ.:     0.3301117 α      in ANC's #1, #2, #3, ...

........................................................................
.............................. CYCLE   11 ..............................
........................................................................

 iter      E             dE          RMSdq      gap      omega  full diag
   1    -23.5039974 -0.235040E+02  0.250E-01    4.09       0.0  T
   2    -23.5040016 -0.417546E-05  0.149E-01    4.08       1.0  T
   3    -23.5040024 -0.816074E-06  0.791E-03    4.08       3.2  T
   4    -23.5040027 -0.286507E-06  0.407E-03    4.08       6.1  T
   5    -23.5040027 -0.292297E-07  0.177E-03    4.08      14.1  T
   6    -23.5040027 -0.942730E-08  0.684E-04    4.08      36.5  T
   7    -23.5040027 -0.220859E-08  0.360E-04    4.08      69.5  T
     SCC iter.                  ...        0 min,  0.003 sec
     gradient                   ...        0 min,  0.001 sec
 * total energy  :   -23.2741149 Eh     change       -0.2226009E-03 Eh
   gradient norm :     0.0100337 Eh/α   predicted    -0.2750887E-03 (  23.58%)
   displ. norm   :     0.0876249 α      lambda       -0.1818181E-03
   maximum displ.:     0.0424087 α      in ANC's #3, #1, #4, ...

........................................................................
.............................. CYCLE   12 ..............................
........................................................................

 iter      E             dE          RMSdq      gap      omega  full diag
   1    -23.5064129 -0.235064E+02  0.627E-02    4.15       0.0  T
   2    -23.5064136 -0.652588E-06  0.376E-02    4.14       1.0  T
   3    -23.5064138 -0.184837E-06  0.306E-03    4.14       8.2  T
   4    -23.5064138 -0.278374E-07  0.181E-03    4.14      13.8  T
   5    -23.5064138 -0.691256E-08  0.774E-04    4.14      32.3  T
   6    -23.5064138 -0.239335E-08  0.313E-04    4.14      79.9  T
     SCC iter.                  ...        0 min,  0.003 sec
     gradient                   ...        0 min,  0.001 sec
 * total energy  :   -23.2742299 Eh     change       -0.1150240E-03 Eh
   gradient norm :     0.0058238 Eh/α   predicted    -0.9160560E-04 ( -20.36%)
   displ. norm   :     0.1695747 α      lambda       -0.1156902E-03
   maximum displ.:     0.1006678 α      in ANC's #2, #1, #3, ...

........................................................................
.............................. CYCLE   13 ..............................
........................................................................

 iter      E             dE          RMSdq      gap      omega  full diag
   1    -23.5066559 -0.235067E+02  0.971E-02    4.12       0.0  T
   2    -23.5066571 -0.125331E-05  0.584E-02    4.12       1.0  T
   3    -23.5066576 -0.448891E-06  0.522E-03    4.12       4.8  T
   4    -23.5066577 -0.105089E-06  0.297E-03    4.12       8.4  T
   5    -23.5066577 -0.162780E-07  0.984E-04    4.12      25.4  T
   6    -23.5066577 -0.412741E-08  0.426E-04    4.12      58.7  T
     SCC iter.                  ...        0 min,  0.003 sec
     gradient                   ...        0 min,  0.001 sec
 * total energy  :   -23.2743160 Eh     change       -0.8606846E-04 Eh
   gradient norm :     0.0038963 Eh/α   predicted    -0.5950818E-04 ( -30.86%)
   displ. norm   :     0.3051203 α      lambda       -0.1900586E-03
   maximum displ.:     0.1774819 α      in ANC's #2, #3, #1, ...

........................................................................
.............................. CYCLE   14 ..............................
........................................................................

 iter      E             dE          RMSdq      gap      omega  full diag
   1    -23.5081132 -0.235081E+02  0.178E-01    4.10       0.0  T
   2    -23.5081164 -0.316437E-05  0.107E-01    4.10       1.0  T
   3    -23.5081176 -0.122882E-05  0.798E-03    4.10       3.1  T
   4    -23.5081178 -0.213764E-06  0.466E-03    4.10       5.4  T
   5    -23.5081178 -0.280247E-07  0.120E-03    4.10      20.9  T
   6    -23.5081179 -0.490589E-08  0.550E-04    4.10      45.5  T
   7    -23.5081179 -0.132593E-08  0.314E-04    4.10      79.5  T
     SCC iter.                  ...        0 min,  0.003 sec
     gradient                   ...        0 min,  0.001 sec
 * total energy  :   -23.2744386 Eh     change       -0.1226019E-03 Eh
   gradient norm :     0.0067240 Eh/α   predicted    -0.1038753E-03 ( -15.27%)
   displ. norm   :     0.3544997 α      lambda       -0.1977814E-03
   maximum displ.:     0.2373322 α      in ANC's #2, #3, #1, ...

........................................................................
.............................. CYCLE   15 ..............................
........................................................................

 iter      E             dE          RMSdq      gap      omega  full diag
   1    -23.5063577 -0.235064E+02  0.219E-01    3.90       0.0  T
   2    -23.5063662 -0.856436E-05  0.134E-01    3.91       1.0  T
   3    -23.5063691 -0.284501E-05  0.121E-02    3.92       2.1  T
   4    -23.5063695 -0.463480E-06  0.667E-03    3.92       3.7  T
   5    -23.5063696 -0.570245E-07  0.201E-03    3.92      12.4  T
   6    -23.5063696 -0.114214E-07  0.831E-04    3.92      30.1  T
   7    -23.5063696 -0.289327E-08  0.418E-04    3.92      59.9  T
     SCC iter.                  ...        0 min,  0.003 sec
     gradient                   ...        0 min,  0.001 sec
 * total energy  :   -23.2745674 Eh     change       -0.1288112E-03 Eh
   gradient norm :     0.0099833 Eh/α   predicted    -0.1113209E-03 ( -13.58%)
   displ. norm   :     0.3068780 α      lambda       -0.3425664E-03
   maximum displ.:     0.2068480 α      in ANC's #3, #2, #1, ...

........................................................................
.............................. CYCLE   16 ..............................
........................................................................

 iter      E             dE          RMSdq      gap      omega  full diag
   1    -23.5086327 -0.235086E+02  0.188E-01    3.78       0.0  T
   2    -23.5086411 -0.846351E-05  0.117E-01    3.79       1.0  T
   3    -23.5086438 -0.265876E-05  0.129E-02    3.80       1.9  T
   4    -23.5086447 -0.877225E-06  0.601E-03    3.80       4.2  T
   5    -23.5086447 -0.312122E-07  0.169E-03    3.80      14.8  T
   6    -23.5086447 -0.108637E-07  0.692E-04    3.80      36.1  T
   7    -23.5086447 -0.172498E-08  0.305E-04    3.80      82.1  T
     SCC iter.                  ...        0 min,  0.003 sec
     gradient                   ...        0 min,  0.001 sec
 * total energy  :   -23.2746778 Eh     change       -0.1104094E-03 Eh
   gradient norm :     0.0173443 Eh/α   predicted    -0.1874094E-03 (  69.74%)
   displ. norm   :     0.2690963 α      lambda       -0.4098602E-03
   maximum displ.:     0.1903444 α      in ANC's #3, #2, #19, ...

........................................................................
.............................. CYCLE   17 ..............................
........................................................................

 iter      E             dE          RMSdq      gap      omega  full diag
   1    -23.5057984 -0.235058E+02  0.167E-01    3.76       0.0  T
   2    -23.5058022 -0.386130E-05  0.101E-01    3.77       1.0  T
   3    -23.5058033 -0.105281E-05  0.795E-03    3.77       3.1  T
   4    -23.5058035 -0.203318E-06  0.432E-03    3.77       5.8  T
   5    -23.5058035 -0.172467E-07  0.155E-03    3.77      16.1  T
   6    -23.5058035 -0.540828E-08  0.440E-04    3.77      56.9  T
   7    -23.5058035 -0.686732E-09  0.249E-04    3.77     100.3  T
     SCC iter.                  ...        0 min,  0.003 sec
     gradient                   ...        0 min,  0.001 sec
 * total energy  :   -23.2748849 Eh     change       -0.2070809E-03 Eh
   gradient norm :     0.0128200 Eh/α   predicted    -0.2197695E-03 (   6.13%)
   displ. norm   :     0.2466075 α      lambda       -0.5519548E-03
   maximum displ.:     0.1548755 α      in ANC's #2, #1, #4, ...

........................................................................
.............................. CYCLE   18 ..............................
........................................................................

 iter      E             dE          RMSdq      gap      omega  full diag
   1    -23.5104679 -0.235105E+02  0.163E-01    4.29       0.0  T
   2    -23.5104770 -0.905122E-05  0.988E-02    4.27       1.0  T
   3    -23.5104780 -0.101222E-05  0.111E-02    4.25       2.2  T
   4    -23.5104784 -0.436246E-06  0.434E-03    4.25       5.8  T
   5    -23.5104785 -0.215154E-07  0.190E-03    4.25      13.2  T
   6    -23.5104785 -0.283224E-08  0.565E-04    4.25      44.3  T
   7    -23.5104785 -0.410225E-09  0.167E-04    4.25     150.0  T
     SCC iter.                  ...        0 min,  0.003 sec
     gradient                   ...        0 min,  0.001 sec
 * total energy  :   -23.2748229 Eh     change        0.6199883E-04 Eh
   gradient norm :     0.0150515 Eh/α   predicted    -0.2927639E-03 (-572.21%)
   displ. norm   :     0.2543238 α      lambda       -0.6353863E-03
   maximum displ.:     0.1721843 α      in ANC's #2, #3, #12, ...

........................................................................
.............................. CYCLE   19 ..............................
........................................................................

 iter      E             dE          RMSdq      gap      omega  full diag
   1    -23.5094057 -0.235094E+02  0.185E-01    3.83       0.0  T
   2    -23.5094142 -0.848129E-05  0.115E-01    3.85       1.0  T
   3    -23.5094165 -0.229119E-05  0.110E-02    3.87       2.3  T
   4    -23.5094170 -0.555715E-06  0.523E-03    3.87       4.8  T
   5    -23.5094171 -0.371493E-07  0.193E-03    3.87      13.0  T
   6    -23.5094171 -0.544663E-08  0.765E-04    3.87      32.7  T
   7    -23.5094171 -0.137372E-08  0.255E-04    3.87      97.9  T
     SCC iter.                  ...        0 min,  0.003 sec
     gradient                   ...        0 min,  0.001 sec
 * total energy  :   -23.2751948 Eh     change       -0.3719723E-03 Eh
   gradient norm :     0.0084068 Eh/α   predicted    -0.3382393E-03 (  -9.07%)
   displ. norm   :     0.1990250 α      lambda       -0.2217352E-03
   maximum displ.:     0.1480739 α      in ANC's #3, #1, #2, ...

........................................................................
.............................. CYCLE   20 ..............................
........................................................................

 iter      E             dE          RMSdq      gap      omega  full diag
   1    -23.5073332 -0.235073E+02  0.124E-01    3.76       0.0  T
   2    -23.5073378 -0.457553E-05  0.762E-02    3.77       1.0  T
   3    -23.5073387 -0.879542E-06  0.860E-03    3.78       2.9  T
   4    -23.5073390 -0.276025E-06  0.344E-03    3.78       7.3  T
   5    -23.5073390 -0.102893E-07  0.149E-03    3.78      16.8  T
   6    -23.5073390 -0.255047E-08  0.351E-04    3.78      71.3  T
   7    -23.5073390 -0.338602E-09  0.155E-04    3.78     161.3  T
     SCC iter.                  ...        0 min,  0.003 sec
     gradient                   ...        0 min,  0.001 sec
 * total energy  :   -23.2753131 Eh     change       -0.1182569E-03 Eh
   gradient norm :     0.0099148 Eh/α   predicted    -0.1152599E-03 (  -2.53%)
   displ. norm   :     0.1277530 α      lambda       -0.1579667E-03
   maximum displ.:     0.0878367 α      in ANC's #1, #3, #4, ...
 * RMSD in coord.:     1.1037092 α      energy gain  -0.3419327E-01 Eh

generating ANC from model Hessian ...
Using Lindh-Hessian (1995)
 Shifting diagonal of input Hessian by    5.4103802574033992E-003
 Lowest  eigenvalues of input Hessian
    0.000000    0.000000    0.000000    0.000000    0.000000    0.000000
    0.010000    0.011276    0.016908    0.019888    0.028683    0.040656
    0.043646    0.051134    0.052882    0.056301    0.058618    0.060305
 Highest eigenvalues
    1.223807    1.246045    1.282271    1.390518    1.409905    1.473358


........................................................................
.............................. CYCLE   21 ..............................
........................................................................

 iter      E             dE          RMSdq      gap      omega  full diag
   1    -23.5078579 -0.235079E+02  0.578E-02    3.84       0.0  T
   2    -23.5078584 -0.507496E-06  0.354E-02    3.84       1.0  T
   3    -23.5078586 -0.194011E-06  0.334E-03    3.84       7.5  T
   4    -23.5078587 -0.401164E-07  0.178E-03    3.84      14.1  T
   5    -23.5078587 -0.394912E-08  0.609E-04    3.84      41.0  T
   6    -23.5078587 -0.831349E-09  0.193E-04    3.84     129.4  T
     SCC iter.                  ...        0 min,  0.003 sec
     gradient                   ...        0 min,  0.001 sec
 * total energy  :   -23.2754414 Eh     change       -0.1282726E-03 Eh
   gradient norm :     0.0075246 Eh/α   predicted     0.0000000E+00 (-100.00%)
   displ. norm   :     0.1035526 α      lambda       -0.2444863E-03
   maximum displ.:     0.0740142 α      in ANC's #1, #3, #2, ...

........................................................................
.............................. CYCLE   22 ..............................
........................................................................

 iter      E             dE          RMSdq      gap      omega  full diag
   1    -23.5083584 -0.235084E+02  0.768E-02    3.94       0.0  T
   2    -23.5083596 -0.122673E-05  0.486E-02    3.93       1.0  T
   3    -23.5083603 -0.728303E-06  0.390E-03    3.93       6.4  T
   4    -23.5083603 -0.381878E-07  0.207E-03    3.93      12.1  T
   5    -23.5083604 -0.986280E-08  0.873E-04    3.93      28.6  T
   6    -23.5083604 -0.290366E-08  0.350E-04    3.93      71.5  T
     SCC iter.                  ...        0 min,  0.003 sec
     gradient                   ...        0 min,  0.001 sec
 * total energy  :   -23.2756481 Eh     change       -0.2067360E-03 Eh
   gradient norm :     0.0034122 Eh/α   predicted    -0.1235554E-03 ( -40.24%)
   displ. norm   :     0.2851354 α      lambda       -0.4696095E-03
   maximum displ.:     0.1870558 α      in ANC's #1, #2, #3, ...

........................................................................
.............................. CYCLE   23 ..............................
........................................................................

 iter      E             dE          RMSdq      gap      omega  full diag
   1    -23.5084649 -0.235085E+02  0.227E-01    3.95       0.0  T
   2    -23.5084744 -0.953217E-05  0.144E-01    3.95       1.0  T
   3    -23.5084798 -0.541136E-05  0.995E-03    3.96       2.5  T
   4    -23.5084802 -0.355394E-06  0.546E-03    3.96       4.6  T
   5    -23.5084802 -0.489703E-07  0.179E-03    3.96      13.9  T
   6    -23.5084802 -0.110086E-07  0.814E-04    3.96      30.7  T
   7    -23.5084802 -0.314895E-08  0.430E-04    3.96      58.1  T
     SCC iter.                  ...        0 min,  0.003 sec
     gradient                   ...        0 min,  0.001 sec
 * total energy  :   -23.2760265 Eh     change       -0.3783560E-03 Eh
   gradient norm :     0.0034287 Eh/α   predicted    -0.2538946E-03 ( -32.90%)
   displ. norm   :     0.4154783 α      lambda       -0.4646392E-03
   maximum displ.:     0.2798563 α      in ANC's #1, #2, #3, ...

........................................................................
.............................. CYCLE   24 ..............................
........................................................................

 iter      E             dE          RMSdq      gap      omega  full diag
   1    -23.5071823 -0.235072E+02  0.346E-01    3.59       0.0  T
   2    -23.5072037 -0.213434E-04  0.219E-01    3.61       1.0  T
   3    -23.5072135 -0.980236E-05  0.148E-02    3.64       1.7  T
   4    -23.5072145 -0.977696E-06  0.773E-03    3.63       3.2  T
   5    -23.5072145 -0.725060E-07  0.275E-03    3.63       9.1  T
   6    -23.5072146 -0.193177E-07  0.109E-03    3.63      23.0  T
   7    -23.5072146 -0.446330E-08  0.538E-04    3.63      46.5  T
   8    -23.5072146 -0.154793E-08  0.276E-04    3.63      90.4  T
     SCC iter.                  ...        0 min,  0.004 sec
     gradient                   ...        0 min,  0.001 sec
 * total energy  :   -23.2762006 Eh     change       -0.1741279E-03 Eh
   gradient norm :     0.0156486 Eh/α   predicted    -0.2724316E-03 (  56.45%)
   displ. norm   :     0.0632632 α      lambda       -0.3186999E-03
   maximum displ.:     0.0377078 α      in ANC's #5, #7, #2, ...

........................................................................
.............................. CYCLE   25 ..............................
........................................................................

 iter      E             dE          RMSdq      gap      omega  full diag
   1    -23.5089144 -0.235089E+02  0.854E-02    3.91       0.0  T
   2    -23.5089167 -0.229524E-05  0.535E-02    3.89       1.0  T
   3    -23.5089173 -0.603480E-06  0.545E-03    3.88       4.6  T
   4    -23.5089174 -0.935743E-07  0.252E-03    3.88       9.9  T
   5    -23.5089174 -0.975742E-08  0.108E-03    3.88      23.2  T
   6    -23.5089174 -0.177049E-08  0.414E-04    3.88      60.4  T
   7    -23.5089174 -0.338765E-09  0.125E-04    3.88     200.3  T
     SCC iter.                  ...        0 min,  0.003 sec
     gradient                   ...        0 min,  0.001 sec
 * total energy  :   -23.2763857 Eh     change       -0.1851064E-03 Eh
   gradient norm :     0.0046811 Eh/α   predicted    -0.1599865E-03 ( -13.57%)
   displ. norm   :     0.1910422 α      lambda       -0.1799323E-03
   maximum displ.:     0.1312452 α      in ANC's #1, #2, #3, ...

........................................................................
.............................. CYCLE   26 ..............................
........................................................................

 iter      E             dE          RMSdq      gap      omega  full diag
   1    -23.5094299 -0.235094E+02  0.124E-01    3.92       0.0  T
   2    -23.5094317 -0.181852E-05  0.773E-02    3.92       1.0  T
   3    -23.5094324 -0.711707E-06  0.609E-03    3.92       4.1  T
   4    -23.5094327 -0.245751E-06  0.309E-03    3.92       8.1  T
   5    -23.5094327 -0.691467E-08  0.695E-04    3.92      36.0  T
   6    -23.5094327 -0.154548E-08  0.247E-04    3.92     101.1  T
     SCC iter.                  ...        0 min,  0.003 sec
     gradient                   ...        0 min,  0.001 sec
 * total energy  :   -23.2765221 Eh     change       -0.1364534E-03 Eh
   gradient norm :     0.0031157 Eh/α   predicted    -0.9325060E-04 ( -31.66%)
   displ. norm   :     0.2504561 α      lambda       -0.1462184E-03
   maximum displ.:     0.1759259 α      in ANC's #1, #2, #3, ...

........................................................................
.............................. CYCLE   27 ..............................
........................................................................

 iter      E             dE          RMSdq      gap      omega  full diag
   1    -23.5093188 -0.235093E+02  0.179E-01    3.82       0.0  T
   2    -23.5093229 -0.403920E-05  0.112E-01    3.83       1.0  T
   3    -23.5093247 -0.181137E-05  0.778E-03    3.84       3.2  T
   4    -23.5093250 -0.279564E-06  0.424E-03    3.84       5.9  T
   5    -23.5093250 -0.186170E-07  0.134E-03    3.84      18.6  T
   6    -23.5093250 -0.401561E-08  0.448E-04    3.84      55.8  T
   7    -23.5093250 -0.675044E-09  0.223E-04    3.84     111.9  T
     SCC iter.                  ...        0 min,  0.003 sec
     gradient                   ...        0 min,  0.001 sec
 * total energy  :   -23.2766048 Eh     change       -0.8269574E-04 Eh
   gradient norm :     0.0050886 Eh/α   predicted    -0.7769680E-04 (  -6.04%)
   displ. norm   :     0.0485807 α      lambda       -0.4467289E-04
   maximum displ.:     0.0330157 α      in ANC's #1, #3, #5, ...

........................................................................
.............................. CYCLE   28 ..............................
........................................................................

 iter      E             dE          RMSdq      gap      omega  full diag
   1    -23.5100281 -0.235100E+02  0.306E-02    3.91       0.0  T
   2    -23.5100283 -0.187129E-06  0.187E-02    3.90       1.3  T
   3    -23.5100284 -0.510949E-07  0.178E-03    3.90      14.0  T
   4    -23.5100284 -0.944970E-08  0.908E-04    3.90      27.5  T
   5    -23.5100284 -0.158447E-08  0.455E-04    3.90      55.0  T
     SCC iter.                  ...        0 min,  0.002 sec
     gradient                   ...        0 min,  0.001 sec
 * total energy  :   -23.2766332 Eh     change       -0.2837540E-04 Eh
   gradient norm :     0.0018773 Eh/α   predicted    -0.2239014E-04 ( -21.09%)
   displ. norm   :     0.1367803 α      lambda       -0.2532706E-04
   maximum displ.:     0.1074961 α      in ANC's #1, #4, #3, ...

........................................................................
.............................. CYCLE   29 ..............................
........................................................................

 iter      E             dE          RMSdq      gap      omega  full diag
   1    -23.5098786 -0.235099E+02  0.866E-02    3.92       0.0  T
   2    -23.5098793 -0.714151E-06  0.536E-02    3.93       1.0  T
   3    -23.5098797 -0.325422E-06  0.323E-03    3.93       7.7  T
   4    -23.5098797 -0.257413E-07  0.180E-03    3.93      13.9  T
   5    -23.5098797 -0.343078E-08  0.643E-04    3.93      38.9  T
   6    -23.5098797 -0.928843E-09  0.174E-04    3.93     143.6  T
     SCC iter.                  ...        0 min,  0.003 sec
     gradient                   ...        0 min,  0.001 sec
 * total energy  :   -23.2766541 Eh     change       -0.2085136E-04 Eh
   gradient norm :     0.0017324 Eh/α   predicted    -0.1276808E-04 ( -38.77%)
   displ. norm   :     0.0575969 α      lambda       -0.1509983E-04
   maximum displ.:     0.0379241 α      in ANC's #1, #2, #6, ...

........................................................................
.............................. CYCLE   30 ..............................
........................................................................

 iter      E             dE          RMSdq      gap      omega  full diag
   1    -23.5104247 -0.235104E+02  0.266E-02    3.94       0.0  T
   2    -23.5104248 -0.703176E-07  0.163E-02    3.94       1.5  T
   3    -23.5104248 -0.305950E-07  0.138E-03    3.94      18.1  T
   4    -23.5104248 -0.921173E-08  0.791E-04    3.94      31.6  T
   5    -23.5104248 -0.137840E-08  0.260E-04    3.94      96.0  T
     SCC iter.                  ...        0 min,  0.002 sec
     gradient                   ...        0 min,  0.001 sec
 * total energy  :   -23.2766684 Eh     change       -0.1431867E-04 Eh
   gradient norm :     0.0015201 Eh/α   predicted    -0.7562122E-05 ( -47.19%)
   displ. norm   :     0.0939277 α      lambda       -0.1312409E-04
   maximum displ.:     0.0730718 α      in ANC's #1, #2, #4, ...

........................................................................
.............................. CYCLE   31 ..............................
........................................................................

 iter      E             dE          RMSdq      gap      omega  full diag
   1    -23.5101827 -0.235102E+02  0.424E-02    3.93       0.0  T
   2    -23.5101828 -0.133612E-06  0.260E-02    3.93       1.0  T
   3    -23.5101829 -0.411127E-07  0.147E-03    3.93      17.1  T
   4    -23.5101829 -0.100580E-07  0.788E-04    3.93      31.7  T
   5    -23.5101829 -0.456811E-09  0.220E-04    3.93     113.6  T
     SCC iter.                  ...        0 min,  0.003 sec
     gradient                   ...        0 min,  0.001 sec
 * total energy  :   -23.2766810 Eh     change       -0.1262228E-04 Eh
   gradient norm :     0.0015472 Eh/α   predicted    -0.6587910E-05 ( -47.81%)
   displ. norm   :     0.0758210 α      lambda       -0.1034373E-04
   maximum displ.:     0.0558895 α      in ANC's #2, #1, #3, ...

........................................................................
.............................. CYCLE   32 ..............................
........................................................................

 iter      E             dE          RMSdq      gap      omega  full diag
   1    -23.5100026 -0.235100E+02  0.282E-02    3.92       0.0  T
   2    -23.5100026 -0.542371E-07  0.168E-02    3.93       1.5  T
   3    -23.5100026 -0.124520E-07  0.907E-04    3.93      27.6  T
   4    -23.5100026 -0.319902E-08  0.484E-04    3.93      51.7  T
     SCC iter.                  ...        0 min,  0.003 sec
     gradient                   ...        0 min,  0.001 sec
 * total energy  :   -23.2766922 Eh     change       -0.1113819E-04 Eh
   gradient norm :     0.0013850 Eh/α   predicted    -0.5185436E-05 ( -53.44%)
   displ. norm   :     0.0825931 α      lambda       -0.9349763E-05
   maximum displ.:     0.0605855 α      in ANC's #2, #1, #3, ...

........................................................................
.............................. CYCLE   33 ..............................
........................................................................

 iter      E             dE          RMSdq      gap      omega  full diag
   1    -23.5099524 -0.235100E+02  0.333E-02    3.91       0.0  T
   2    -23.5099524 -0.619665E-07  0.199E-02    3.91       1.3  T
   3    -23.5099524 -0.246814E-07  0.111E-03    3.91      22.5  T
   4    -23.5099524 -0.286472E-08  0.660E-04    3.91      37.9  T
   5    -23.5099524 -0.260133E-09  0.129E-04    3.91     193.2  T
     SCC iter.                  ...        0 min,  0.003 sec
     gradient                   ...        0 min,  0.001 sec
 * total energy  :   -23.2767007 Eh     change       -0.8558871E-05 Eh
   gradient norm :     0.0011882 Eh/α   predicted    -0.4688653E-05 ( -45.22%)
   displ. norm   :     0.0438065 α      lambda       -0.3960012E-05
   maximum displ.:     0.0316475 α      in ANC's #2, #3, #1, ...

........................................................................
.............................. CYCLE   34 ..............................
........................................................................

 iter      E             dE          RMSdq      gap      omega  full diag
   1    -23.5099529 -0.235100E+02  0.253E-02    3.91       0.0  T
   2    -23.5099530 -0.459340E-07  0.154E-02    3.91       1.6  T
   3    -23.5099530 -0.276258E-07  0.111E-03    3.91      22.6  T
   4    -23.5099530 -0.853969E-09  0.610E-04    3.91      41.0  T
   5    -23.5099530 -0.282007E-09  0.568E-05    3.91     439.8  T
     SCC iter.                  ...        0 min,  0.002 sec
     gradient                   ...        0 min,  0.001 sec
 * total energy  :   -23.2767048 Eh     change       -0.4055252E-05 Eh
   gradient norm :     0.0012099 Eh/α   predicted    -0.1980674E-05 ( -51.16%)
   displ. norm   :     0.0483887 α      lambda       -0.4604647E-05
   maximum displ.:     0.0331257 α      in ANC's #1, #2, #3, ...

........................................................................
.............................. CYCLE   35 ..............................
........................................................................

 iter      E             dE          RMSdq      gap      omega  full diag
   1    -23.5099315 -0.235099E+02  0.274E-02    3.89       0.0  T
   2    -23.5099315 -0.606355E-07  0.163E-02    3.89       1.5  T
   3    -23.5099315 -0.187787E-07  0.942E-04    3.89      26.5  T
   4    -23.5099315 -0.155951E-08  0.510E-04    3.89      49.1  T
     SCC iter.                  ...        0 min,  0.002 sec
     gradient                   ...        0 min,  0.001 sec
 * total energy  :   -23.2767094 Eh     change       -0.4662416E-05 Eh
   gradient norm :     0.0010462 Eh/α   predicted    -0.2302449E-05 ( -50.62%)
   displ. norm   :     0.0546152 α      lambda       -0.5857707E-05
   maximum displ.:     0.0285798 α      in ANC's #2, #1, #3, ...

........................................................................
.............................. CYCLE   36 ..............................
........................................................................

 iter      E             dE          RMSdq      gap      omega  full diag
   1    -23.5098494 -0.235098E+02  0.416E-02    3.91       0.0  T
   2    -23.5098495 -0.164810E-06  0.253E-02    3.91       1.0  T
   3    -23.5098496 -0.921351E-07  0.194E-03    3.91      12.9  T
   4    -23.5098496 -0.324815E-08  0.105E-03    3.91      23.8  T
   5    -23.5098496 -0.995410E-09  0.210E-04    3.91     119.3  T
   6    -23.5098496 -0.903526E-10  0.725E-05    3.91     345.0  T
     SCC iter.                  ...        0 min,  0.003 sec
     gradient                   ...        0 min,  0.001 sec
 * total energy  :   -23.2767136 Eh     change       -0.4198598E-05 Eh
   gradient norm :     0.0019058 Eh/α   predicted    -0.2931902E-05 ( -30.17%)
   displ. norm   :     0.0289100 α      lambda       -0.4935279E-05
   maximum displ.:     0.0184981 α      in ANC's #2, #6, #5, ...

........................................................................
.............................. CYCLE   37 ..............................
........................................................................

 iter      E             dE          RMSdq      gap      omega  full diag
   1    -23.5102734 -0.235103E+02  0.156E-02    3.90       0.0  T
   2    -23.5102734 -0.542962E-07  0.935E-03    3.90       2.7  T
   3    -23.5102735 -0.152155E-07  0.977E-04    3.90      25.6  T
   4    -23.5102735 -0.239552E-08  0.481E-04    3.90      52.0  T
     SCC iter.                  ...        0 min,  0.002 sec
     gradient                   ...        0 min,  0.001 sec
 * total energy  :   -23.2767156 Eh     change       -0.1997604E-05 Eh
   gradient norm :     0.0010211 Eh/α   predicted    -0.2467785E-05 (  23.54%)
   displ. norm   :     0.0532237 α      lambda       -0.4673664E-05
   maximum displ.:     0.0408492 α      in ANC's #1, #4, #3, ...

........................................................................
.............................. CYCLE   38 ..............................
........................................................................

 iter      E             dE          RMSdq      gap      omega  full diag
   1    -23.5100244 -0.235100E+02  0.299E-02    3.88       0.0  T
   2    -23.5100245 -0.101092E-06  0.185E-02    3.88       1.4  T
   3    -23.5100246 -0.223524E-07  0.119E-03    3.89      21.0  T
   4    -23.5100246 -0.104027E-07  0.522E-04    3.88      47.9  T
   5    -23.5100246 -0.259803E-09  0.197E-04    3.88     127.1  T
     SCC iter.                  ...        0 min,  0.002 sec
     gradient                   ...        0 min,  0.001 sec
 * total energy  :   -23.2767187 Eh     change       -0.3055469E-05 Eh
   gradient norm :     0.0010606 Eh/α   predicted    -0.2339756E-05 ( -23.42%)
   displ. norm   :     0.0111163 α      lambda       -0.2263472E-05
   maximum displ.:     0.0059687 α      in ANC's #4, #1, #2, ...

........................................................................
.............................. CYCLE   39 ..............................
........................................................................

 iter      E             dE          RMSdq      gap      omega  full diag
   1    -23.5099681 -0.235100E+02  0.921E-03    3.90       0.0  T
   2    -23.5099681 -0.146399E-07  0.572E-03    3.90       4.4  T
   3    -23.5099681 -0.637518E-08  0.502E-04    3.90      49.8  T
   4    -23.5099681 -0.516035E-09  0.263E-04    3.90      95.1  T
     SCC iter.                  ...        0 min,  0.002 sec
     gradient                   ...        0 min,  0.001 sec
 * total energy  :   -23.2767212 Eh     change       -0.2529541E-05 Eh
   gradient norm :     0.0010243 Eh/α   predicted    -0.1132154E-05 ( -55.24%)
   displ. norm   :     0.0274735 α      lambda       -0.3457569E-05
   maximum displ.:     0.0232069 α      in ANC's #4, #25, #5, ...

........................................................................
.............................. CYCLE   40 ..............................
........................................................................

 iter      E             dE          RMSdq      gap      omega  full diag
   1    -23.5100133 -0.235100E+02  0.174E-02    3.91       0.0  T
   2    -23.5100134 -0.439902E-07  0.108E-02    3.91       2.3  T
   3    -23.5100134 -0.186434E-07  0.100E-03    3.91      25.0  T
   4    -23.5100134 -0.438965E-08  0.542E-04    3.91      46.1  T
   5    -23.5100134 -0.163809E-09  0.127E-04    3.91     197.0  T
     SCC iter.                  ...        0 min,  0.002 sec
     gradient                   ...        0 min,  0.001 sec
 * total energy  :   -23.2767251 Eh     change       -0.3846452E-05 Eh
   gradient norm :     0.0013403 Eh/α   predicted    -0.1729726E-05 ( -55.03%)
   displ. norm   :     0.0446582 α      lambda       -0.4042789E-05
   maximum displ.:     0.0381665 α      in ANC's #4, #25, #5, ...

........................................................................
.............................. CYCLE   41 ..............................
........................................................................

 iter      E             dE          RMSdq      gap      omega  full diag
   1    -23.5100318 -0.235100E+02  0.272E-02    3.91       0.0  T
   2    -23.5100319 -0.122615E-06  0.169E-02    3.91       1.5  T
   3    -23.5100320 -0.500416E-07  0.168E-03    3.91      14.9  T
   4    -23.5100320 -0.158563E-07  0.866E-04    3.91      28.9  T
   5    -23.5100320 -0.257931E-09  0.127E-04    3.91     197.3  T
     SCC iter.                  ...        0 min,  0.002 sec
     gradient                   ...        0 min,  0.001 sec
 * total energy  :   -23.2767293 Eh     change       -0.4216794E-05 Eh
   gradient norm :     0.0016009 Eh/α   predicted    -0.2021358E-05 ( -52.06%)
   displ. norm   :     0.0378204 α      lambda       -0.4141496E-05
   maximum displ.:     0.0298386 α      in ANC's #4, #5, #2, ...

........................................................................
.............................. CYCLE   42 ..............................
........................................................................

 iter      E             dE          RMSdq      gap      omega  full diag
   1    -23.5102294 -0.235102E+02  0.276E-02    3.90       0.0  T
   2    -23.5102296 -0.130330E-06  0.171E-02    3.90       1.5  T
   3    -23.5102296 -0.461855E-07  0.184E-03    3.90      13.6  T
   4    -23.5102296 -0.194086E-07  0.916E-04    3.90      27.3  T
   5    -23.5102296 -0.381480E-09  0.167E-04    3.90     149.8  T
     SCC iter.                  ...        0 min,  0.003 sec
     gradient                   ...        0 min,  0.001 sec
 * total energy  :   -23.2767332 Eh     change       -0.3924934E-05 Eh
   gradient norm :     0.0008004 Eh/α   predicted    -0.2074454E-05 ( -47.15%)
   displ. norm   :     0.0858661 α      lambda       -0.5597924E-05
   maximum displ.:     0.0597853 α      in ANC's #4, #1, #5, ...

   *** GEOMETRY OPTIMIZATION CONVERGED AFTER 42 ITERATIONS ***

------------------------------------------------------------------------
 total energy gain   :        -0.0356134 Eh      -22.3477 kcal/mol
 total RMSD          :         1.2826761 a0        0.6788 Å
 total power (kW/mol):        -2.2262592 (step) -339.9041 (real)
------------------------------------------------------------------------

 ANCopt (total)                0 d,  0 h,  0 min,  0.275 sec
 optimizer setup                ...        0 min,  0.000 sec (  0.040%)
 model hessian                  ...        0 min,  0.010 sec (  3.567%)
 ANC generation                 ...        0 min,  0.001 sec (  0.261%)
 coordinate transformation      ...        0 min,  0.000 sec (  0.061%)
 single point calculation       ...        0 min,  0.198 sec ( 71.878%)
 optimization log               ...        0 min,  0.003 sec (  1.236%)
 hessian update                 ...        0 min,  0.000 sec (  0.116%)
 rational function              ...        0 min,  0.061 sec ( 22.047%)

================
 final structure:
================
16
 xtb: 6.6.1 (8d0f1dd)
O            2.71400436485232       -1.07128826644659        0.33909262584954
O            1.71764360493369       -0.22127275953998        0.91286835530157
C            0.73710387700857        0.07252742341974       -0.05041750765628
C           -0.17779626980363       -1.11056155725041       -0.41517763811488
C           -1.49313825034717       -0.48065698778917       -0.64702425086226
C           -1.51603032230609        0.93620947159623       -0.21648420814889
C           -0.21018054458162        1.10921377521470        0.56411813452809
H            3.43361241415205       -0.98886872860116        0.97765337338199
H            1.22121748019416        0.46606092114607       -0.95451814490785
H           -0.20203541526249       -1.81016721364604        0.43331436731564
H            0.19220655505876       -1.67659977459132       -1.27467046555859
H           -2.32785776647197       -0.98357224237835       -1.09448617036777
H           -2.39616751163782        1.18172540824179        0.38570859583200
H           -1.53478158219729        1.61324373280890       -1.08347927490198
H           -0.35243368461135        0.84666637622078        1.61285532691034
H            0.19483305101974        2.11734042159480        0.51054688139945

 Bond Distances (Angstroems)
 ---------------------------
O1-O2=1.4299         O1-H8=0.9656         O2-O1=1.4299         O2-C3=1.4056         C3-O2=1.4056         C3-C4=1.5394         
C3-C7=1.5329         C3-H9=1.0985         C4-C3=1.5394         C4-C5=1.4767         C4-H10=1.1000        C4-H11=1.0936        
C5-C4=1.4767         C5-C6=1.4810         C5-H12=1.0723        C6-C5=1.4810         C6-C7=1.5312         C6-H13=1.0943        
C6-H14=1.1002        C7-C3=1.5329         C7-C6=1.5312         C7-H15=1.0904        C7-H16=1.0878        H8-O1=0.9656         
H9-C3=1.0985         H10-C4=1.1000        H11-C4=1.0936        H12-C5=1.0723        H13-C6=1.0943        H14-C6=1.1002        
H15-C7=1.0904        H16-C7=1.0878        
 C  H  Rav=1.0921 sigma=0.0086  Rmin=1.0723  Rmax=1.1002     8
 C  C  Rav=1.5122 sigma=0.0274  Rmin=1.4767  Rmax=1.5394     5
 O  H  Rav=0.9656 sigma=0.0000  Rmin=0.9656  Rmax=0.9656     1
 O  C  Rav=1.4056 sigma=0.0000  Rmin=1.4056  Rmax=1.4056     1
 O  O  Rav=1.4299 sigma=0.0000  Rmin=1.4299  Rmax=1.4299     1

 selected bond angles (degree)
 --------------------
H8-O1-O2=101.72                C3-O2-O1=109.59                C4-C3-O2=114.60                C7-C3-O2=107.32                
C7-C3-C4=104.33                H9-C3-O2=109.36                H9-C3-C4=110.01                H9-C3-C7=111.10                
C5-C4-C3=103.81                H10-C4-C3=108.61               H10-C4-C5=111.89               H11-C4-C3=112.51               
H11-C4-C5=113.50               H11-C4-H10=106.53              C6-C5-C4=112.10                H12-C5-C4=123.97               
H12-C5-C6=123.91               C7-C6-C5=104.07                H13-C6-C5=112.77               H13-C6-C7=112.34               
H14-C6-C5=111.09               H14-C6-C7=110.29               H14-C6-H13=106.37              C6-C7-C3=104.26                
H15-C7-C3=107.66               H15-C7-C6=110.60               H16-C7-C3=112.14               H16-C7-C6=113.40               
H16-C7-H15=108.61              

 selected dihedral angles (degree)
 ---------------------------------
C3-O2-O1-H8=164.09            C4-C3-O2-O1= 71.10            C7-C3-O2-O1=186.44            H9-C3-O2-O1=307.05            
C5-C4-C3-O2=144.49            C5-C4-C3-C7= 27.43            C5-C4-C3-H9=268.19            H10-C4-C3-O2= 25.29           
H10-C4-C3-C7=268.23           H10-C4-C3-H9=148.99           H11-C4-C3-O2=267.61           H11-C4-C3-C7=150.55           
H11-C4-C3-H9= 31.31           C6-C5-C4-C3=349.53            C6-C5-C4-H10=106.46           C6-C5-C4-H11=227.06           
H12-C5-C4-C3=168.28           H12-C5-C4-H10=285.21          H12-C5-C4-H11= 45.81          C7-C6-C5-C4=349.25            
C7-C6-C5-H12=170.50           H13-C6-C5-C4=227.23           H13-C6-C5-H12= 48.49          H14-C6-C5-C4=107.92           
H14-C6-C5-H12=289.17          C6-C7-C3-O2=203.67            C6-C7-C3-C4=325.66            C6-C7-C3-H9= 84.17            
H15-C7-C3-O2=321.18           H15-C7-C3-C4= 83.17           H15-C7-C3-H9=201.67           H16-C7-C3-O2= 80.60           
H16-C7-C3-C4=202.59           H16-C7-C3-H9=321.09           C3-C7-C6-C5= 27.62            C3-C7-C6-H13=149.92           
C3-C7-C6-H14=268.40           H15-C7-C6-C5=272.16           H15-C7-C6-H13= 34.46          H15-C7-C6-H14=152.94          
H16-C7-C6-C5=149.88           H16-C7-C6-H13=272.18          H16-C7-C6-H14= 30.66          
           -------------------------------------------------
          |                Final Singlepoint                |
           -------------------------------------------------

          ...................................................
          :                      SETUP                      :
          :.................................................:
          :  # basis functions                  37          :
          :  # atomic orbitals                  37          :
          :  # shells                           23          :
          :  # electrons                        41          :
          :  max. iterations                   250          :
          :  Hamiltonian                  GFN2-xTB          :
          :  restarted?                      false          :
          :  GBSA solvation                  false          :
          :  PC potential                    false          :
          :  electronic temp.          300.0000000     K    :
          :  accuracy                    1.0000000          :
          :  -> integral cutoff          0.2500000E+02      :
          :  -> integral neglect         0.1000000E-07      :
          :  -> SCF convergence          0.1000000E-05 Eh   :
          :  -> wf. convergence          0.1000000E-03 e    :
          :  Broyden damping             0.4000000          :
          ...................................................

 iter      E             dE          RMSdq      gap      omega  full diag
   1    -23.5102296 -0.235102E+02  0.552E-05    3.90       0.0  T
   2    -23.5102296 -0.908429E-11  0.308E-05    3.90     812.0  T
   3    -23.5102296 -0.173017E-11  0.150E-05    3.90    1671.4  T

   *** convergence criteria satisfied after 3 iterations ***

         #    Occupation            Energy/Eh            Energy/eV
      -------------------------------------------------------------
         1        2.0000           -0.7170543             -19.5120
       ...           ...                  ...                  ...
        15        2.0000           -0.4675891             -12.7237
        16        2.0000           -0.4536096             -12.3433
        17        2.0000           -0.4499316             -12.2433
        18        2.0000           -0.4474176             -12.1749
        19        2.0000           -0.4344764             -11.8227
        20        2.0000           -0.4011032             -10.9146
        21        1.0000           -0.2926058              -7.9622 (HOMO)
        22                         -0.1492166              -4.0604 (LUMO)
        23                          0.0507548               1.3811
        24                          0.0746582               2.0316
        25                          0.0973209               2.6482
        26                          0.1101119               2.9963
       ...                                ...                  ...
        37                          0.3964562              10.7881
      -------------------------------------------------------------
                  HL-Gap            0.1433892 Eh            3.9018 eV
             Fermi-level           -0.2838829 Eh           -7.7248 eV

 SCC (total)                   0 d,  0 h,  0 min,  0.003 sec
 SCC setup                      ...        0 min,  0.000 sec (  2.098%)
 Dispersion                     ...        0 min,  0.000 sec (  1.108%)
 classical contributions        ...        0 min,  0.000 sec (  0.293%)
 integral evaluation            ...        0 min,  0.000 sec ( 11.281%)
 iterations                     ...        0 min,  0.002 sec ( 48.728%)
 molecular gradient             ...        0 min,  0.001 sec ( 32.682%)
 printout                       ...        0 min,  0.000 sec (  3.216%)

         :::::::::::::::::::::::::::::::::::::::::::::::::::::
         ::                     SUMMARY                     ::
         :::::::::::::::::::::::::::::::::::::::::::::::::::::
         :: total energy             -23.276733196227 Eh    ::
         :: gradient norm              0.000802391430 Eh/a0 ::
         :: HOMO-LUMO gap              3.901819521509 eV    ::
         ::.................................................::
         :: SCC energy               -23.510229617368 Eh    ::
         :: -> isotropic ES            0.030002747535 Eh    ::
         :: -> anisotropic ES         -0.004235427471 Eh    ::
         :: -> anisotropic XC         -0.000072268498 Eh    ::
         :: -> dispersion             -0.009612562486 Eh    ::
         :: repulsion energy           0.233480798031 Eh    ::
         :: add. restraining           0.000000000000 Eh    ::
         :: total charge              -0.000000000000 e     ::
         :::::::::::::::::::::::::::::::::::::::::::::::::::::

           -------------------------------------------------
          |                Property Printout                |
           -------------------------------------------------

    * Orbital Energies and Occupations

         #    Occupation            Energy/Eh            Energy/eV
      -------------------------------------------------------------
         1        2.0000           -0.7170543             -19.5120
       ...           ...                  ...                  ...
         9        2.0000           -0.5504045             -14.9773
        10        2.0000           -0.5397680             -14.6878
        11        2.0000           -0.5193892             -14.1333
        12        2.0000           -0.5114263             -13.9166
        13        2.0000           -0.4914557             -13.3732
        14        2.0000           -0.4742988             -12.9063
        15        2.0000           -0.4675891             -12.7237
        16        2.0000           -0.4536096             -12.3433
        17        2.0000           -0.4499316             -12.2433
        18        2.0000           -0.4474176             -12.1749
        19        2.0000           -0.4344764             -11.8227
        20        2.0000           -0.4011032             -10.9146
        21        1.0000           -0.2926058              -7.9622 (HOMO)
        22                         -0.1492166              -4.0604 (LUMO)
        23                          0.0507548               1.3811
        24                          0.0746582               2.0316
        25                          0.0973209               2.6482
        26                          0.1101119               2.9963
        27                          0.1235318               3.3615
        28                          0.1319280               3.5899
        29                          0.1431440               3.8951
        30                          0.1644801               4.4757
        31                          0.1870006               5.0885
        32                          0.2084494               5.6722
       ...                                ...                  ...
        37                          0.3964562              10.7881
      -------------------------------------------------------------
                  HL-Gap            0.1433892 Eh            3.9018 eV
             Fermi-level           -0.2838829 Eh           -7.7248 eV

     #   Z          covCN         q      C6AA      α(0)
     1   8 O        1.732    -0.329    19.501     5.963
     2   8 O        1.776    -0.218    17.608     5.666
     3   6 C        3.761     0.127    18.566     6.143
     4   6 C        3.819    -0.064    21.706     6.630
     5   6 C        2.929    -0.081    30.029     8.987
     6   6 C        3.821    -0.054    21.522     6.602
     7   6 C        3.834    -0.066    21.746     6.635
     8   1 H        0.805     0.318     0.669     1.285
     9   1 H        0.923     0.032     2.554     2.499
    10   1 H        0.923     0.065     2.140     2.288
    11   1 H        0.924     0.050     2.319     2.381
    12   1 H        0.926     0.029     2.606     2.524
    13   1 H        0.924     0.047     2.355     2.400
    14   1 H        0.923     0.048     2.350     2.397
    15   1 H        0.924     0.055     2.261     2.352
    16   1 H        0.925     0.042     2.427     2.436

 Mol. C6AA /au·bohr⁶  :       2060.173753
 Mol. C8AA /au·bohr⁸  :      44781.475455
 Mol. α(0) /au        :         67.187427


Wiberg/Mayer (AO) data.
largest (>0.10) Wiberg bond orders for each atom

 ---------------------------------------------------------------------------
     #   Z sym  total        # sym  WBO       # sym  WBO       # sym  WBO
 ---------------------------------------------------------------------------
     1   8 O    1.904 --     2 O    0.969     8 H    0.892
     2   8 O    2.010 --     3 C    0.977     1 O    0.969
     3   6 C    3.937 --     4 C    0.978     2 O    0.977     7 C    0.976
                             9 H    0.963
     4   6 C    3.997 --     5 C    1.081     3 C    0.978    11 H    0.954
                            10 H    0.931
     5   6 C    3.290 --     4 C    1.081     6 C    1.072    12 H    0.976
     6   6 C    3.997 --     5 C    1.072     7 C    1.001    13 H    0.955
                            14 H    0.939
     7   6 C    3.994 --     6 C    1.001    16 H    0.980     3 C    0.976
                            15 H    0.976
     8   1 H    0.899 --     1 O    0.892
     9   1 H    0.999 --     3 C    0.963
    10   1 H    0.993 --     4 C    0.931
    11   1 H    0.997 --     4 C    0.954
    12   1 H    0.999 --     5 C    0.976
    13   1 H    0.997 --     6 C    0.955
    14   1 H    0.996 --     6 C    0.939
    15   1 H    0.997 --     7 C    0.976
    16   1 H    0.998 --     7 C    0.980
 ---------------------------------------------------------------------------

Topologies differ in total number of bonds
Writing topology from bond orders to xtbtopo.mol

molecular dipole:
                 x           y           z       tot (Debye)
 q only:       -0.157       0.252       0.048
   full:        0.004       0.302       0.106       0.813
molecular quadrupole (traceless):
                xx          xy          yy          xz          yz          zz
 q only:        2.126      -0.920      -0.762       1.881      -0.531      -1.364
  q+dip:        2.398       0.186      -1.199       2.399      -1.627      -1.199
   full:        2.876      -0.529      -1.488       2.583      -1.182      -1.389

           -------------------------------------------------
          |                Geometry Summary                 |
           -------------------------------------------------

      molecular mass/u    :      101.1239561
   center of mass at/Å    :        0.3675608      -0.1343090       0.1023660
  moments of inertia/u·Å² :        0.8143311E+02   0.2821431E+03   0.3425953E+03
rotational constants/cm⁻¹ :        0.2070120E+00   0.5974851E-01   0.4920567E-01

 * 16 selected distances

     #   Z          #   Z                                           value/Å
     1   8 O        2   8 O                                       1.4298532
     2   8 O        3   6 C                                       1.4055948
     3   6 C        4   6 C                                       1.5394129 (max)
     4   6 C        5   6 C                                       1.4767050
     5   6 C        6   6 C                                       1.4810131
     3   6 C        7   6 C                                       1.5328799
     6   6 C        7   6 C                                       1.5311808
     1   8 O        8   1 H                                       0.9656028 (min)
     3   6 C        9   1 H                                       1.0984684
     4   6 C       10   1 H                                       1.0999884
     4   6 C       11   1 H                                       1.0936313
     5   6 C       12   1 H                                       1.0723352
     6   6 C       13   1 H                                       1.0943290
     6   6 C       14   1 H                                       1.1001853
     7   6 C       15   1 H                                       1.0904206
     7   6 C       16   1 H                                       1.0877617

 * 5 distinct bonds (by element types)

   Z      Z             #   av. dist./Å        max./Å        min./Å
   1 H    6 C           8     1.0921400     1.1001853     1.0723352
   6 C    6 C           5     1.5122383     1.5394129     1.4767050
   1 H    8 O           1     0.9656028     0.9656028     0.9656028
   6 C    8 O           1     1.4055948     1.4055948     1.4055948
   8 O    8 O           1     1.4298532     1.4298532     1.4298532


optimized geometry written to: xtbopt.xyz


           -------------------------------------------------
          | TOTAL ENERGY              -23.276733196227 Eh   |
          | GRADIENT NORM               0.000802391430 Eh/α |
          | HOMO-LUMO GAP               3.901819521509 eV   |
           -------------------------------------------------

------------------------------------------------------------------------
 * finished run on 2025/05/23 at 13:07:09.640     
------------------------------------------------------------------------
 total:
 * wall-time:     0 d,  0 h,  0 min,  0.298 sec
 *  cpu-time:     0 d,  0 h,  0 min,  1.885 sec
 * ratio c/w:     6.335 speedup
 SCF:
 * wall-time:     0 d,  0 h,  0 min,  0.010 sec
 *  cpu-time:     0 d,  0 h,  0 min,  0.069 sec
 * ratio c/w:     6.937 speedup
 ANC optimizer:
 * wall-time:     0 d,  0 h,  0 min,  0.280 sec
 *  cpu-time:     0 d,  0 h,  0 min,  1.764 sec
 * ratio c/w:     6.309 speedup

