
                                 *****************
                                 * O   R   C   A *
                                 *****************

                                            #,                                       
                                            ###                                      
                                            ####                                     
                                            #####                                    
                                            ######                                   
                                           ########,                                 
                                     ,,################,,,,,                         
                               ,,#################################,,                 
                          ,,##########################################,,             
                       ,#########################################, ''#####,          
                    ,#############################################,,   '####,        
                  ,##################################################,,,,####,       
                ,###########''''           ''''###############################       
              ,#####''   ,,,,##########,,,,          '''####'''          '####       
            ,##' ,,,,###########################,,,                        '##       
           ' ,,###''''                  '''############,,,                           
         ,,##''                                '''############,,,,        ,,,,,,###''
      ,#''                                            '''#######################'''  
     '                                                          ''''####''''         
             ,#######,   #######,   ,#######,      ##                                
            ,#'     '#,  ##    ##  ,#'     '#,    #''#        ######   ,####,        
            ##       ##  ##   ,#'  ##            #'  '#       #        #'  '#        
            ##       ##  #######   ##           ,######,      #####,   #    #        
            '#,     ,#'  ##    ##  '#,     ,#' ,#      #,         ##   #,  ,#        
             '#######'   ##     ##  '#######'  #'      '#     #####' # '####'        



                  #######################################################
                  #                        -***-                        #
                  #          Department of theory and spectroscopy      #
                  #    Directorship and core code : Frank Neese         #
                  #        Max Planck Institute fuer Kohlenforschung    #
                  #                Kaiser Wilhelm Platz 1               #
                  #                 D-45470 Muelheim/Ruhr               #
                  #                      Germany                        #
                  #                                                     #
                  #                  All rights reserved                #
                  #                        -***-                        #
                  #######################################################


                         Program Version 5.0.4 -  RELEASE  -


 With contributions from (in alphabetic order):
   Daniel Aravena         : Magnetic Suceptibility
   Michael Atanasov       : Ab Initio Ligand Field Theory (pilot matlab implementation)
   Alexander A. Auer      : GIAO ZORA, VPT2 properties, NMR spectrum
   Ute Becker             : Parallelization
   Giovanni Bistoni       : ED, misc. LED, open-shell LED, HFLD
   Martin Brehm           : Molecular dynamics
   Dmytro Bykov           : SCF Hessian
   Vijay G. Chilkuri      : MRCI spin determinant printing, contributions to CSF-ICE
   Dipayan Datta          : RHF DLPNO-CCSD density
   Achintya Kumar Dutta   : EOM-CC, STEOM-CC
   Dmitry Ganyushin       : Spin-Orbit,Spin-Spin,Magnetic field MRCI
   Miquel Garcia          : C-PCM and meta-GGA Hessian, CC/C-PCM, Gaussian charge scheme
   Yang Guo               : DLPNO-NEVPT2, F12-NEVPT2, CIM, IAO-localization
   Andreas Hansen         : Spin unrestricted coupled pair/coupled cluster methods
   Benjamin Helmich-Paris : MC-RPA, TRAH-SCF, COSX integrals
   Lee Huntington         : MR-EOM, pCC
   Robert Izsak           : Overlap fitted RIJCOSX, COSX-SCS-MP3, EOM
   Marcus Kettner         : VPT2
   Christian Kollmar      : KDIIS, OOCD, Brueckner-CCSD(T), CCSD density, CASPT2, CASPT2-K
   Simone Kossmann        : Meta GGA functionals, TD-DFT gradient, OOMP2, MP2 Hessian
   Martin Krupicka        : Initial AUTO-CI
   Lucas Lang             : DCDCAS
   Marvin Lechner         : AUTO-CI (C++ implementation), FIC-MRCC
   Dagmar Lenk            : GEPOL surface, SMD
   Dimitrios Liakos       : Extrapolation schemes; Compound Job, initial MDCI parallelization
   Dimitrios Manganas     : Further ROCIS development; embedding schemes
   Dimitrios Pantazis     : SARC Basis sets
   Anastasios Papadopoulos: AUTO-CI, single reference methods and gradients
   Taras Petrenko         : DFT Hessian,TD-DFT gradient, ASA, ECA, R-Raman, ABS, FL, XAS/XES, NRVS
   Peter Pinski           : DLPNO-MP2, DLPNO-MP2 Gradient
   Christoph Reimann      : Effective Core Potentials
   Marius Retegan         : Local ZFS, SOC
   Christoph Riplinger    : Optimizer, TS searches, QM/MM, DLPNO-CCSD(T), (RO)-DLPNO pert. Triples
   Tobias Risthaus        : Range-separated hybrids, TD-DFT gradient, RPA, STAB
   Michael Roemelt        : Original ROCIS implementation
   Masaaki Saitow         : Open-shell DLPNO-CCSD energy and density
   Barbara Sandhoefer     : DKH picture change effects
   Avijit Sen             : IP-ROCIS
   Kantharuban Sivalingam : CASSCF convergence, NEVPT2, FIC-MRCI
   Bernardo de Souza      : ESD, SOC TD-DFT
   Georgi Stoychev        : AutoAux, RI-MP2 NMR, DLPNO-MP2 response
   Willem Van den Heuvel  : Paramagnetic NMR
   Boris Wezisla          : Elementary symmetry handling
   Frank Wennmohs         : Technical directorship


 We gratefully acknowledge several colleagues who have allowed us to
 interface, adapt or use parts of their codes:
   Stefan Grimme, W. Hujo, H. Kruse, P. Pracht,  : VdW corrections, initial TS optimization,
                  C. Bannwarth, S. Ehlert          DFT functionals, gCP, sTDA/sTD-DF
   Ed Valeev, F. Pavosevic, A. Kumar             : LibInt (2-el integral package), F12 methods
   Garnet Chan, S. Sharma, J. Yang, R. Olivares  : DMRG
   Ulf Ekstrom                                   : XCFun DFT Library
   Mihaly Kallay                                 : mrcc  (arbitrary order and MRCC methods)
   Jiri Pittner, Ondrej Demel                    : Mk-CCSD
   Frank Weinhold                                : gennbo (NPA and NBO analysis)
   Christopher J. Cramer and Donald G. Truhlar   : smd solvation model
   Lars Goerigk                                  : TD-DFT with DH, B97 family of functionals
   V. Asgeirsson, H. Jonsson                     : NEB implementation
   FAccTs GmbH                                   : IRC, NEB, NEB-TS, DLPNO-Multilevel, CI-OPT
                                                   MM, QMMM, 2- and 3-layer-ONIOM, Crystal-QMMM,
                                                   LR-CPCM, SF, NACMEs, symmetry and pop. for TD-DFT,
                                                   nearIR, NL-DFT gradient (VV10), updates on ESD,
                                                   ML-optimized integration grids
   S Lehtola, MJT Oliveira, MAL Marques          : LibXC Library
   Liviu Ungur et al                             : ANISO software


 Your calculation uses the libint2 library for the computation of 2-el integrals
 For citations please refer to: http://libint.valeyev.net

 Your ORCA version has been built with support for libXC version: 5.1.0
 For citations please refer to: https://tddft.org/programs/libxc/

 This ORCA versions uses:
   CBLAS   interface :  Fast vector & matrix operations
   LAPACKE interface :  Fast linear algebra routines
   SCALAPACK package :  Parallel linear algebra routines
   Shared memory     :  Shared parallel matrices
   BLAS/LAPACK       :  OpenBLAS 0.3.15  USE64BITINT DYNAMIC_ARCH NO_AFFINITY SkylakeX SINGLE_THREADED
        Core in use  :  SkylakeX
   Copyright (c) 2011-2014, The OpenBLAS Project


Your calculation utilizes the atom-pairwise dispersion correction
with the Becke-Johnson damping scheme (D3BJ)
Cite in your paper:
S.Grimme, S.Ehrlich, L.Goerigk, J Comput Chem, (2011), 32, 1456–1465 
S.Grimme, J.Antony, S.Ehrlich and H.Krieg, J.Chem.Phys., 132, (2010), 154104 
   

================================================================================

----- Orbital basis set information -----
Your calculation utilizes the basis: def2-SVP
   F. Weigend and R. Ahlrichs, Phys. Chem. Chem. Phys. 7, 3297 (2005).

----- AuxJ basis set information -----
Your calculation utilizes the auxiliary basis: def2/J
   F. Weigend, Phys. Chem. Chem. Phys. 8, 1057 (2006).

================================================================================
                                        WARNINGS
                       Please study these warnings very carefully!
================================================================================


WARNING: your system is open-shell and RHF/RKS was chosen
  ===> : WILL SWITCH to UHF/UKS


INFO   : the flag for use of the SHARK integral package has been found!

================================================================================
                                       INPUT FILE
================================================================================
NAME = 5_1_orca.inp
|  1> ! EnGrad PBE0 RIJCOSX D3BJ def2-SVP def2/J 
|  2> %output 
|  3> xyzfile=True 
|  4> end 
|  5> %scf 
|  6> maxiter 250 
|  7> end
|  8> %output
|  9> Print[P_Hirshfeld] = 1
| 10> end
| 11> % maxcore
| 12> 4000
| 13> *xyz 0 2
| 14> O   -2.13589748  -0.90107066   0.99871097 
| 15> O   -0.90292952   0.10659332   1.06351185 
| 16> C   -0.65801513   0.57934922  -0.28659642 
| 17> C    0.52010253   1.40470844   0.13570855 
| 18> C    1.59378143   0.50902119   0.22477240 
| 19> C    1.25561943  -0.74095213  -0.32515851 
| 20> C   -0.09531450  -0.60531270  -1.04039741 
| 21> H   -2.15860533  -1.06042672   1.95799363 
| 22> H   -1.55331193   1.09000837  -0.67131501 
| 23> H    0.45635369   2.41972197   0.52487375 
| 24> H    2.55385568   0.70750795   0.70245510 
| 25> H    1.79784815  -1.61306558  -0.25039074 
| 26> H    0.09271242  -0.42952097  -2.11533943 
| 27> H   -0.76623314  -1.46652578  -0.91908200 
| 28> *
| 29> 
| 30>                          ****END OF INPUT****
================================================================================

                     *******************************
                     * Energy+Gradient Calculation *
                     *******************************

---------------------------------
CARTESIAN COORDINATES (ANGSTROEM)
---------------------------------
  O     -2.135897   -0.901071    0.998711
  O     -0.902930    0.106593    1.063512
  C     -0.658015    0.579349   -0.286596
  C      0.520103    1.404708    0.135709
  C      1.593781    0.509021    0.224772
  C      1.255619   -0.740952   -0.325159
  C     -0.095314   -0.605313   -1.040397
  H     -2.158605   -1.060427    1.957994
  H     -1.553312    1.090008   -0.671315
  H      0.456354    2.419722    0.524874
  H      2.553856    0.707508    0.702455
  H      1.797848   -1.613066   -0.250391
  H      0.092712   -0.429521   -2.115339
  H     -0.766233   -1.466526   -0.919082

----------------------------
CARTESIAN COORDINATES (A.U.)
----------------------------
  NO LB      ZA    FRAG     MASS         X           Y           Z
   0 O     8.0000    0    15.999   -4.036261   -1.702777    1.887290
   1 O     8.0000    0    15.999   -1.706290    0.201432    2.009746
   2 C     6.0000    0    12.011   -1.243468    1.094811   -0.541589
   3 C     6.0000    0    12.011    0.982851    2.654514    0.256452
   4 C     6.0000    0    12.011    3.011810    0.961911    0.424758
   5 C     6.0000    0    12.011    2.372777   -1.400197   -0.614461
   6 C     6.0000    0    12.011   -0.180118   -1.143875   -1.966066
   7 H     1.0000    0     1.008   -4.079173   -2.003916    3.700072
   8 H     1.0000    0     1.008   -2.935334    2.059817   -1.268602
   9 H     1.0000    0     1.008    0.862383    4.572612    0.991868
  10 H     1.0000    0     1.008    4.826088    1.336996    1.327448
  11 H     1.0000    0     1.008    3.397441   -3.048252   -0.473170
  12 H     1.0000    0     1.008    0.175201   -0.811677   -3.997412
  13 H     1.0000    0     1.008   -1.447971   -2.771332   -1.736813

--------------------------------
INTERNAL COORDINATES (ANGSTROEM)
--------------------------------
 O      0   0   0     0.000000000000     0.00000000     0.00000000
 O      1   0   0     1.593673693397     0.00000000     0.00000000
 C      2   1   0     1.451300637406   107.37952220     0.00000000
 C      3   2   1     1.499173289026    92.86035255   181.90567819
 C      4   3   2     1.401061882821   105.55525621    80.94415923
 C      5   4   3     1.406844285886   111.03607167    10.39154191
 C      3   2   1     1.512703472669   105.73789415   289.63491215
 H      1   2   3     0.972693796673    94.67758335   182.30878852
 H      3   2   1     1.100153407967   109.82711102    59.79657821
 H      4   3   2     1.088928800967   124.59968517   274.67780429
 H      5   4   3     1.090559636741   125.88291926   193.73367918
 H      6   5   4     1.029652404404   126.69723969   190.78515416
 H      7   3   2     1.105331263171   115.04566259   176.50480381
 H      7   3   2     1.098424881076   109.37647039    52.62268385

---------------------------
INTERNAL COORDINATES (A.U.)
---------------------------
 O      0   0   0     0.000000000000     0.00000000     0.00000000
 O      1   0   0     3.011606827355     0.00000000     0.00000000
 C      2   1   0     2.742560742683   107.37952220     0.00000000
 C      3   2   1     2.833026943549    92.86035255   181.90567819
 C      4   3   2     2.647623255208   105.55525621    80.94415923
 C      5   4   3     2.658550413396   111.03607167    10.39154191
 C      3   2   1     2.858595285176   105.73789415   289.63491215
 H      1   2   3     1.838124887877    94.67758335   182.30878852
 H      3   2   1     2.078988646357   109.82711102    59.79657821
 H      4   3   2     2.057777213167   124.59968517   274.67780429
 H      5   4   3     2.060859046148   125.88291926   193.73367918
 H      6   5   4     1.945761057457   126.69723969   190.78515416
 H      7   3   2     2.088773374654   115.04566259   176.50480381
 H      7   3   2     2.075722203918   109.37647039    52.62268385

---------------------
BASIS SET INFORMATION
---------------------
There are 3 groups of distinct atoms

 Group   1 Type O   : 7s4p1d contracted to 3s2p1d pattern {511/31/1}
 Group   2 Type C   : 7s4p1d contracted to 3s2p1d pattern {511/31/1}
 Group   3 Type H   : 4s1p contracted to 2s1p pattern {31/1}

Atom   0O    basis set group =>   1
Atom   1O    basis set group =>   1
Atom   2C    basis set group =>   2
Atom   3C    basis set group =>   2
Atom   4C    basis set group =>   2
Atom   5C    basis set group =>   2
Atom   6C    basis set group =>   2
Atom   7H    basis set group =>   3
Atom   8H    basis set group =>   3
Atom   9H    basis set group =>   3
Atom  10H    basis set group =>   3
Atom  11H    basis set group =>   3
Atom  12H    basis set group =>   3
Atom  13H    basis set group =>   3
---------------------------------
AUXILIARY/J BASIS SET INFORMATION
---------------------------------
There are 3 groups of distinct atoms

 Group   1 Type O   : 12s5p4d2f1g contracted to 6s4p3d1f1g pattern {711111/2111/211/2/1}
 Group   2 Type C   : 12s5p4d2f1g contracted to 6s4p3d1f1g pattern {711111/2111/211/2/1}
 Group   3 Type H   : 5s2p1d contracted to 3s1p1d pattern {311/2/1}

Atom   0O    basis set group =>   1
Atom   1O    basis set group =>   1
Atom   2C    basis set group =>   2
Atom   3C    basis set group =>   2
Atom   4C    basis set group =>   2
Atom   5C    basis set group =>   2
Atom   6C    basis set group =>   2
Atom   7H    basis set group =>   3
Atom   8H    basis set group =>   3
Atom   9H    basis set group =>   3
Atom  10H    basis set group =>   3
Atom  11H    basis set group =>   3
Atom  12H    basis set group =>   3
Atom  13H    basis set group =>   3
------------------------------------------------------------------------------
                           ORCA GTO INTEGRAL CALCULATION
                           -- RI-GTO INTEGRALS CHOSEN --
------------------------------------------------------------------------------
------------------------------------------------------------------------------
                   ___                                                        
                  /   \      - P O W E R E D   B Y -                         
                 /     \                                                     
                 |  |  |   _    _      __       _____    __    __             
                 |  |  |  | |  | |    /  \     |  _  \  |  |  /  |          
                  \  \/   | |  | |   /    \    | | | |  |  | /  /          
                 / \  \   | |__| |  /  /\  \   | |_| |  |  |/  /          
                |  |  |   |  __  | /  /__\  \  |    /   |      \           
                |  |  |   | |  | | |   __   |  |    \   |  |\   \          
                \     /   | |  | | |  |  |  |  | |\  \  |  | \   \       
                 \___/    |_|  |_| |__|  |__|  |_| \__\ |__|  \__/        
                                                                              
                      - O R C A' S   B I G   F R I E N D -                    
                                      &                                       
                       - I N T E G R A L  F E E D E R -                       
                                                                              
 v1 FN, 2020, v2 2021                                                         
------------------------------------------------------------------------------


Reading SHARK input file 5_1_orca.SHARKINP.tmp ... ok
----------------------
SHARK INTEGRAL PACKAGE
----------------------

Number of atoms                             ...     14
Number of basis functions                   ...    133
Number of shells                            ...     63
Maximum angular momentum                    ...      2
Integral batch strategy                     ... SHARK/LIBINT Hybrid
RI-J (if used) integral strategy            ... SPLIT-RIJ (Revised 2003 algorithm where possible)
Printlevel                                  ...      1
Contraction scheme used                     ... SEGMENTED contraction
Coulomb Range Separation                    ... NOT USED
Exchange Range Separation                   ... NOT USED
Finite Nucleus Model                        ... NOT USED
Auxiliary Coulomb fitting basis             ... AVAILABLE
   # of basis functions in Aux-J            ...    420
   # of shells in Aux-J                     ...    140
   Maximum angular momentum in Aux-J        ...      4
Auxiliary J/K fitting basis                 ... NOT available
Auxiliary Correlation fitting basis         ... NOT available
Auxiliary 'external' fitting basis          ... NOT available
Integral threshold                          ...     2.500000e-11
Primitive cut-off                           ...     2.500000e-12
Primitive pair pre-selection threshold      ...     2.500000e-12

Calculating pre-screening integrals         ... done (  0.0 sec) Dimension = 63
Organizing shell pair data                  ... done (  0.0 sec)
Shell pair information
Total number of shell pairs                 ...      2016
Shell pairs after pre-screening             ...      1968
Total number of primitive shell pairs       ...      7252
Primitive shell pairs kept                  ...      5366
          la=0 lb=0:    608 shell pairs
          la=1 lb=0:    719 shell pairs
          la=1 lb=1:    228 shell pairs
          la=2 lb=0:    239 shell pairs
          la=2 lb=1:    146 shell pairs
          la=2 lb=2:     28 shell pairs

Calculating one electron integrals          ... done (  0.0 sec)
Calculating RI/J V-Matrix + Cholesky decomp.... done (  0.0 sec)
Calculating Nuclear repulsion               ... done (  0.0 sec) ENN=    301.612389090881 Eh

SHARK setup successfully completed in   0.1 seconds

Maximum memory used throughout the entire GTOINT-calculation: 17.0 MB
-------------------------------------------------------------------------------
                                 ORCA SCF
-------------------------------------------------------------------------------

------------
SCF SETTINGS
------------
Hamiltonian:
 Density Functional     Method          .... DFT(GTOs)
 Exchange Functional    Exchange        .... PBE
   PBE kappa parameter   XKappa         ....  0.804000
   PBE mue parameter    XMuePBE         ....  0.219520
 Correlation Functional Correlation     .... PBE
   PBE beta parameter  CBetaPBE         ....  0.066725
 LDA part of GGA corr.  LDAOpt          .... PW91-LDA
 Gradients option       PostSCFGGA      .... off
 Hybrid DFT is turned on
   Fraction HF Exchange ScalHFX         ....  0.250000
   Scaling of DF-GGA-X  ScalDFX         ....  0.750000
   Scaling of DF-GGA-C  ScalDFC         ....  1.000000
   Scaling of DF-LDA-C  ScalLDAC        ....  1.000000
   Perturbative correction              ....  0.000000
   Density functional embedding theory  .... OFF
   NL short-range parameter             ....  6.900000
 RI-approximation to the Coulomb term is turned on
   Number of AuxJ basis functions       .... 420
   RIJ-COSX (HFX calculated with COS-X)).... on


General Settings:
 Integral files         IntName         .... 5_1_orca
 Hartree-Fock type      HFTyp           .... UHF
 Total Charge           Charge          ....    0
 Multiplicity           Mult            ....    2
 Number of Electrons    NEL             ....   53
 Basis Dimension        Dim             ....  133
 Nuclear Repulsion      ENuc            ....    301.6123890909 Eh

Convergence Acceleration:
 DIIS                   CNVDIIS         .... on
   Start iteration      DIISMaxIt       ....    12
   Startup error        DIISStart       ....  0.200000
   # of expansion vecs  DIISMaxEq       ....     5
   Bias factor          DIISBfac        ....   1.050
   Max. coefficient     DIISMaxC        ....  10.000
 Trust-Rad. Augm. Hess. CNVTRAH         .... auto
   Auto Start mean grad. ratio tolernc. ....  1.125000
   Auto Start start iteration           ....    20
   Auto Start num. interpolation iter.  ....    10
   Max. Number of Micro iterations      ....    16
   Max. Number of Macro iterations      .... Maxiter - #DIIS iter
   Number of Davidson start vectors     ....     2
   Converg. threshold I  (grad. norm)   ....   1.000e-05
   Converg. threshold II (energy diff.) ....   1.000e-08
   Grad. Scal. Fac. for Micro threshold ....   0.100
   Minimum threshold for Micro iter.    ....   0.010
   NR start threshold (gradient norm)   ....   0.001
   Initial trust radius                 ....   0.400
   Minimum AH scaling param. (alpha)    ....   1.000
   Maximum AH scaling param. (alpha)    .... 1000.000
   Orbital update algorithm             .... Taylor
   White noise on init. David. guess    .... on
   Maximum white noise                  ....   0.010
   Quad. conv. algorithm                .... NR
 SOSCF                  CNVSOSCF        .... off
 Level Shifting         CNVShift        .... on
   Level shift para.    LevelShift      ....    0.2500
   Turn off err/grad.   ShiftErr        ....    0.0010
 Zerner damping         CNVZerner       .... off
 Static damping         CNVDamp         .... on
   Fraction old density DampFac         ....    0.7000
   Max. Damping (<1)    DampMax         ....    0.9800
   Min. Damping (>=0)   DampMin         ....    0.0000
   Turn off err/grad.   DampErr         ....    0.1000
 Fernandez-Rico         CNVRico         .... off

SCF Procedure:
 Maximum # iterations   MaxIter         ....   250
 SCF integral mode      SCFMode         .... Direct
   Integral package                     .... SHARK and LIBINT hybrid scheme
 Reset frequency        DirectResetFreq ....    20
 Integral Threshold     Thresh          ....  2.500e-11 Eh
 Primitive CutOff       TCut            ....  2.500e-12 Eh

Convergence Tolerance:
 Convergence Check Mode ConvCheckMode   .... Total+1el-Energy
 Convergence forced     ConvForced      .... 0
 Energy Change          TolE            ....  1.000e-08 Eh
 1-El. energy change                    ....  1.000e-05 Eh
 DIIS Error             TolErr          ....  5.000e-07


Diagonalization of the overlap matrix:
Smallest eigenvalue                        ... 9.862e-04
Time for diagonalization                   ...    0.003 sec
Threshold for overlap eigenvalues          ... 1.000e-08
Number of eigenvalues below threshold      ... 0
Time for construction of square roots      ...    0.001 sec
Total time needed                          ...    0.004 sec

Time for model grid setup =    0.118 sec

------------------------------
INITIAL GUESS: MODEL POTENTIAL
------------------------------
Loading Hartree-Fock densities                     ... done
Calculating cut-offs                               ... done
Initializing the effective Hamiltonian             ... done
Setting up the integral package (SHARK)            ... done
Starting the Coulomb interaction                   ... done (   0.1 sec)
Reading the grid                                   ... done
Mapping shells                                     ... done
Starting the XC term evaluation                    ... done (   0.1 sec)
  promolecular density results
     # of electrons  =     52.996674916
     EX              =    -43.838923280
     EC              =     -1.753391179
     EX+EC           =    -45.592314459
Transforming the Hamiltonian                       ... done (   0.0 sec)
Diagonalizing the Hamiltonian                      ... done (   0.0 sec)
Back transforming the eigenvectors                 ... done (   0.0 sec)
Now organizing SCF variables                       ... done
                      ------------------
                      INITIAL GUESS DONE (   0.3 sec)
                      ------------------
-------------------
DFT GRID GENERATION
-------------------

General Integration Accuracy     IntAcc      ... 4.388
Radial Grid Type                 RadialGrid  ... OptM3 with GC (2021)
Angular Grid (max. ang.)         AngularGrid ... 4 (Lebedev-302)
Angular grid pruning method      GridPruning ... 4 (adaptive)
Weight generation scheme         WeightScheme... Becke
Basis function cutoff            BFCut       ... 1.0000e-11
Integration weight cutoff        WCut        ... 1.0000e-14
Angular grids for H and He will be reduced by one unit
Partially contracted basis set               ... off
Rotationally invariant grid construction     ... off

Total number of grid points                  ...    64869
Total number of batches                      ...     1022
Average number of points per batch           ...       63
Average number of grid points per atom       ...     4634
Time for grid setup =    0.485 sec

--------------------
COSX GRID GENERATION
--------------------

GRIDX 1
-------
General Integration Accuracy     IntAcc      ... 3.816
Radial Grid Type                 RadialGrid  ... OptM3 with GC (2021)
Angular Grid (max. ang.)         AngularGrid ... 1 (Lebedev-50)
Angular grid pruning method      GridPruning ... 4 (adaptive)
Weight generation scheme         WeightScheme... Becke
Basis function cutoff            BFCut       ... 1.0000e-11
Integration weight cutoff        WCut        ... 1.0000e-14
Angular grids for H and He will be reduced by one unit
Partially contracted basis set               ... on
Rotationally invariant grid construction     ... off

Total number of grid points                  ...     8293
Total number of batches                      ...      136
Average number of points per batch           ...       60
Average number of grid points per atom       ...      592
UseSFitting                                  ... on

GRIDX 2
-------
General Integration Accuracy     IntAcc      ... 4.020
Radial Grid Type                 RadialGrid  ... OptM3 with GC (2021)
Angular Grid (max. ang.)         AngularGrid ... 2 (Lebedev-110)
Angular grid pruning method      GridPruning ... 4 (adaptive)
Weight generation scheme         WeightScheme... Becke
Basis function cutoff            BFCut       ... 1.0000e-11
Integration weight cutoff        WCut        ... 1.0000e-14
Angular grids for H and He will be reduced by one unit
Partially contracted basis set               ... on
Rotationally invariant grid construction     ... off

Total number of grid points                  ...    18030
Total number of batches                      ...      287
Average number of points per batch           ...       62
Average number of grid points per atom       ...     1288
UseSFitting                                  ... on

GRIDX 3
-------
General Integration Accuracy     IntAcc      ... 4.338
Radial Grid Type                 RadialGrid  ... OptM3 with GC (2021)
Angular Grid (max. ang.)         AngularGrid ... 3 (Lebedev-194)
Angular grid pruning method      GridPruning ... 4 (adaptive)
Weight generation scheme         WeightScheme... Becke
Basis function cutoff            BFCut       ... 1.0000e-11
Integration weight cutoff        WCut        ... 1.0000e-14
Angular grids for H and He will be reduced by one unit
Partially contracted basis set               ... on
Rotationally invariant grid construction     ... off

Total number of grid points                  ...    39625
Total number of batches                      ...      624
Average number of points per batch           ...       63
Average number of grid points per atom       ...     2830
UseSFitting                                  ... on

Time for X-Grid setup             =    0.538 sec

--------------
SCF ITERATIONS
--------------
ITER       Energy         Delta-E        Max-DP      RMS-DP      [F,P]     Damp
               ***  Starting incremental Fock matrix formation  ***
  0   -344.2403892750   0.000000000000 0.03036116  0.00102238  0.0843133 0.7000
  1   -344.2903685746  -0.049979299570 0.01938659  0.00072135  0.0399657 0.7000
                               ***Turning on DIIS***
  2   -344.3131030989  -0.022734524386 0.03049764  0.00131586  0.0165825 0.0000
  3   -344.3492818066  -0.036178707634 0.01413652  0.00054812  0.0197590 0.0000
  4   -344.3568543372  -0.007572530644 0.00534489  0.00016199  0.0037561 0.0000
  5   -344.3573631038  -0.000508766544 0.00304847  0.00010044  0.0034247 0.0000
  6   -344.3576348787  -0.000271774939 0.00362830  0.00008848  0.0020517 0.0000
  7   -344.3578123377  -0.000177459001 0.00262805  0.00006329  0.0013287 0.0000
  8   -344.3578848655  -0.000072527773 0.00244324  0.00006746  0.0008708 0.0000
               *** Restarting incremental Fock matrix formation ***
                                   *** Resetting DIIS ***
  9   -344.3578682910   0.000016574451 0.00077564  0.00002035  0.0002706 0.0000
 10   -344.3578687197  -0.000000428715 0.00036962  0.00001141  0.0004563 0.0000
 11   -344.3578716626  -0.000002942887 0.00027392  0.00000638  0.0001728 0.0000
 12   -344.3578721208  -0.000000458209 0.00022534  0.00000458  0.0002026 0.0000
 13   -344.3578724352  -0.000000314405 0.00015207  0.00000294  0.0001089 0.0000
 14   -344.3578725485  -0.000000113285 0.00008418  0.00000165  0.0000523 0.0000
 15   -344.3578725853  -0.000000036789 0.00006324  0.00000123  0.0000232 0.0000
 16   -344.3578726073  -0.000000021994 0.00004294  0.00000079  0.0000139 0.0000
 17   -344.3578726130  -0.000000005677 0.00003734  0.00000068  0.0000107 0.0000
 18   -344.3578726171  -0.000000004075 0.00001530  0.00000025  0.0000065 0.0000
 19   -344.3578726201  -0.000000003069 0.00000657  0.00000011  0.0000034 0.0000
 20   -344.3578726184   0.000000001706 0.00000178  0.00000005  0.0000014 0.0000
                 **** Energy Check signals convergence ****

               *****************************************************
               *                     SUCCESS                       *
               *           SCF CONVERGED AFTER  21 CYCLES          *
               *****************************************************

Old exchange energy                            =    -11.160924531 Eh
New exchange energy                            =    -11.160955230 Eh
Exchange energy change after final integration =     -0.000030699 Eh
Total energy after final integration           =   -344.357903319 Eh
Final COS-X integration done in                =     4.894 sec

----------------
TOTAL SCF ENERGY
----------------

Total Energy       :         -344.35790332 Eh           -9370.45493 eV

Components:
Nuclear Repulsion  :          301.61238909 Eh            8207.29036 eV
Electronic Energy  :         -645.97029241 Eh          -17577.74529 eV
One Electron Energy:        -1066.66784331 Eh          -29025.50764 eV
Two Electron Energy:          420.69755090 Eh           11447.76235 eV
Max COSX asymmetry :            0.00000105 Eh               0.00003 eV

Virial components:
Potential Energy   :         -685.69752191 Eh          -18658.77817 eV
Kinetic Energy     :          341.33961859 Eh            9288.32323 eV
Virial Ratio       :            2.00884247


DFT components:
N(Alpha)           :       27.000018707717 electrons
N(Beta)            :       26.000015612988 electrons
N(Total)           :       53.000034320705 electrons
E(X)               :      -33.431116844201 Eh       
E(C)               :       -1.766106273341 Eh       
E(XC)              :      -35.197223117542 Eh       
DFET-embed. en.    :        0.000000000000 Eh       

---------------
SCF CONVERGENCE
---------------

  Last Energy change         ...   -9.2382e-10  Tolerance :   1.0000e-08
  Last MAX-Density change    ...    0.0000e+00  Tolerance :   1.0000e-07
  Last RMS-Density change    ...    0.0000e+00  Tolerance :   5.0000e-09
  Last DIIS Error            ...    7.3796e-07  Tolerance :   5.0000e-07

             **** THE GBW FILE WAS UPDATED (5_1_orca.gbw) ****
             **** DENSITY 5_1_orca.scfp WAS UPDATED ****
             **** ENERGY FILE WAS UPDATED (5_1_orca.en.tmp) ****
----------------------
UHF SPIN CONTAMINATION
----------------------

Warning: in a DFT calculation there is little theoretical justification to 
         calculate <S**2> as in Hartree-Fock theory. We will do it anyways
         but you should keep in mind that the values have only limited relevance

Expectation value of <S**2>     :     0.792927
Ideal value S*(S+1) for S=0.5   :     0.750000
Deviation                       :     0.042927

             **** THE GBW FILE WAS UPDATED (5_1_orca.gbw) ****
             **** DENSITY 5_1_orca.scfp WAS UPDATED ****
----------------
ORBITAL ENERGIES
----------------
                 SPIN UP ORBITALS
  NO   OCC          E(Eh)            E(eV) 
   0   1.0000     -19.257602      -524.0260 
   1   1.0000     -19.241590      -523.5903 
   2   1.0000     -10.289771      -279.9989 
   3   1.0000     -10.251538      -278.9585 
   4   1.0000     -10.247078      -278.8372 
   5   1.0000     -10.242754      -278.7195 
   6   1.0000     -10.236529      -278.5501 
   7   1.0000      -1.075626       -29.2693 
   8   1.0000      -0.945397       -25.7256 
   9   1.0000      -0.849062       -23.1042 
  10   1.0000      -0.733424       -19.9575 
  11   1.0000      -0.708971       -19.2921 
  12   1.0000      -0.582960       -15.8631 
  13   1.0000      -0.560091       -15.2408 
  14   1.0000      -0.543178       -14.7806 
  15   1.0000      -0.491059       -13.3624 
  16   1.0000      -0.488176       -13.2840 
  17   1.0000      -0.440553       -11.9881 
  18   1.0000      -0.411224       -11.1900 
  19   1.0000      -0.403378       -10.9765 
  20   1.0000      -0.391492       -10.6530 
  21   1.0000      -0.369972       -10.0675 
  22   1.0000      -0.352633        -9.5956 
  23   1.0000      -0.346396        -9.4259 
  24   1.0000      -0.317040        -8.6271 
  25   1.0000      -0.260048        -7.0763 
  26   1.0000      -0.205859        -5.6017 
  27   0.0000      -0.017716        -0.4821 
  28   0.0000       0.037800         1.0286 
  29   0.0000       0.083054         2.2600 
  30   0.0000       0.096607         2.6288 
  31   0.0000       0.117539         3.1984 
  32   0.0000       0.127440         3.4678 
  33   0.0000       0.136399         3.7116 
  34   0.0000       0.143816         3.9134 
  35   0.0000       0.151160         4.1133 
  36   0.0000       0.192855         5.2479 
  37   0.0000       0.205597         5.5946 
  38   0.0000       0.216384         5.8881 
  39   0.0000       0.272898         7.4259 
  40   0.0000       0.336405         9.1541 
  41   0.0000       0.375377        10.2145 
  42   0.0000       0.397431        10.8146 
  43   0.0000       0.438860        11.9420 
  44   0.0000       0.468792        12.7565 
  45   0.0000       0.486954        13.2507 
  46   0.0000       0.507866        13.8197 
  47   0.0000       0.520858        14.1733 
  48   0.0000       0.548369        14.9219 
  49   0.0000       0.564700        15.3663 
  50   0.0000       0.593451        16.1486 
  51   0.0000       0.608372        16.5547 
  52   0.0000       0.621405        16.9093 
  53   0.0000       0.633033        17.2257 
  54   0.0000       0.637265        17.3409 
  55   0.0000       0.666258        18.1298 
  56   0.0000       0.674895        18.3648 
  57   0.0000       0.692087        18.8326 
  58   0.0000       0.703944        19.1553 
  59   0.0000       0.716367        19.4933 
  60   0.0000       0.731194        19.8968 
  61   0.0000       0.740529        20.1508 
  62   0.0000       0.781485        21.2653 
  63   0.0000       0.791932        21.5496 
  64   0.0000       0.820331        22.3223 
  65   0.0000       0.869308        23.6551 
  66   0.0000       0.937466        25.5097 
  67   0.0000       0.979034        26.6409 
  68   0.0000       1.017957        27.7000 
  69   0.0000       1.042184        28.3593 
  70   0.0000       1.054670        28.6990 
  71   0.0000       1.104329        30.0503 
  72   0.0000       1.143235        31.1090 
  73   0.0000       1.187208        32.3056 
  74   0.0000       1.222920        33.2773 
  75   0.0000       1.256047        34.1788 
  76   0.0000       1.295967        35.2651 
  77   0.0000       1.328493        36.1501 
  78   0.0000       1.391903        37.8756 
  79   0.0000       1.451415        39.4950 
  80   0.0000       1.472804        40.0770 
  81   0.0000       1.554113        42.2896 
  82   0.0000       1.582213        43.0542 
  83   0.0000       1.603355        43.6295 
  84   0.0000       1.643794        44.7299 
  85   0.0000       1.660426        45.1825 
  86   0.0000       1.669852        45.4390 
  87   0.0000       1.679742        45.7081 
  88   0.0000       1.700341        46.2686 
  89   0.0000       1.757646        47.8280 
  90   0.0000       1.787783        48.6480 
  91   0.0000       1.805918        49.1415 
  92   0.0000       1.847972        50.2859 
  93   0.0000       1.854286        50.4577 
  94   0.0000       1.879222        51.1362 
  95   0.0000       1.894810        51.5604 
  96   0.0000       1.921862        52.2965 
  97   0.0000       1.964910        53.4679 
  98   0.0000       1.985141        54.0184 
  99   0.0000       2.032050        55.2949 
 100   0.0000       2.039270        55.4914 
 101   0.0000       2.057189        55.9790 
 102   0.0000       2.096120        57.0383 
 103   0.0000       2.135707        58.1155 
 104   0.0000       2.205507        60.0149 
 105   0.0000       2.225025        60.5460 
 106   0.0000       2.274251        61.8855 
 107   0.0000       2.299094        62.5615 
 108   0.0000       2.365759        64.3756 
 109   0.0000       2.406321        65.4793 
 110   0.0000       2.437817        66.3364 
 111   0.0000       2.467210        67.1362 
 112   0.0000       2.472471        67.2793 
 113   0.0000       2.508532        68.2606 
 114   0.0000       2.547146        69.3114 
 115   0.0000       2.631455        71.6055 
 116   0.0000       2.679758        72.9199 
 117   0.0000       2.733751        74.3891 
 118   0.0000       2.767689        75.3126 
 119   0.0000       2.794731        76.0485 
 120   0.0000       2.824054        76.8464 
 121   0.0000       2.853845        77.6571 
 122   0.0000       2.880090        78.3712 
 123   0.0000       2.930338        79.7385 
 124   0.0000       2.986529        81.2676 
 125   0.0000       3.061843        83.3170 
 126   0.0000       3.081292        83.8462 
 127   0.0000       3.113454        84.7214 
 128   0.0000       3.142852        85.5213 
 129   0.0000       3.343998        90.9948 
 130   0.0000       3.436745        93.5186 
 131   0.0000       3.513886        95.6177 
 132   0.0000       3.779559       102.8470 

                 SPIN DOWN ORBITALS
  NO   OCC          E(Eh)            E(eV) 
   0   1.0000     -19.257010      -524.0099 
   1   1.0000     -19.239325      -523.5286 
   2   1.0000     -10.290173      -280.0099 
   3   1.0000     -10.247047      -278.8363 
   4   1.0000     -10.242201      -278.7045 
   5   1.0000     -10.237100      -278.5656 
   6   1.0000     -10.236517      -278.5498 
   7   1.0000      -1.072033       -29.1715 
   8   1.0000      -0.939732       -25.5714 
   9   1.0000      -0.840428       -22.8692 
  10   1.0000      -0.727867       -19.8063 
  11   1.0000      -0.694037       -18.8857 
  12   1.0000      -0.575605       -15.6630 
  13   1.0000      -0.554431       -15.0868 
  14   1.0000      -0.537602       -14.6289 
  15   1.0000      -0.486258       -13.2318 
  16   1.0000      -0.483882       -13.1671 
  17   1.0000      -0.435122       -11.8403 
  18   1.0000      -0.406783       -11.0691 
  19   1.0000      -0.399886       -10.8814 
  20   1.0000      -0.386764       -10.5244 
  21   1.0000      -0.365859        -9.9555 
  22   1.0000      -0.346569        -9.4306 
  23   1.0000      -0.344254        -9.3676 
  24   1.0000      -0.293906        -7.9976 
  25   1.0000      -0.256326        -6.9750 
  26   0.0000      -0.075190        -2.0460 
  27   0.0000      -0.003673        -0.0999 
  28   0.0000       0.062945         1.7128 
  29   0.0000       0.085479         2.3260 
  30   0.0000       0.099067         2.6957 
  31   0.0000       0.119739         3.2583 
  32   0.0000       0.129841         3.5332 
  33   0.0000       0.140288         3.8174 
  34   0.0000       0.147443         4.0121 
  35   0.0000       0.155411         4.2290 
  36   0.0000       0.197311         5.3691 
  37   0.0000       0.209785         5.7085 
  38   0.0000       0.219095         5.9619 
  39   0.0000       0.282368         7.6836 
  40   0.0000       0.342781         9.3275 
  41   0.0000       0.381649        10.3852 
  42   0.0000       0.399246        10.8640 
  43   0.0000       0.451147        12.2763 
  44   0.0000       0.475557        12.9406 
  45   0.0000       0.496620        13.5137 
  46   0.0000       0.520420        14.1613 
  47   0.0000       0.531136        14.4530 
  48   0.0000       0.552141        15.0245 
  49   0.0000       0.593158        16.1407 
  50   0.0000       0.600554        16.3419 
  51   0.0000       0.610833        16.6216 
  52   0.0000       0.628299        17.0969 
  53   0.0000       0.642108        17.4726 
  54   0.0000       0.647144        17.6097 
  55   0.0000       0.675807        18.3896 
  56   0.0000       0.678374        18.4595 
  57   0.0000       0.693218        18.8634 
  58   0.0000       0.708113        19.2687 
  59   0.0000       0.720904        19.6168 
  60   0.0000       0.735934        20.0258 
  61   0.0000       0.743782        20.2393 
  62   0.0000       0.787557        21.4305 
  63   0.0000       0.796100        21.6630 
  64   0.0000       0.825491        22.4628 
  65   0.0000       0.872134        23.7320 
  66   0.0000       0.940980        25.6054 
  67   0.0000       0.984971        26.8024 
  68   0.0000       1.022829        27.8326 
  69   0.0000       1.049567        28.5602 
  70   0.0000       1.059448        28.8291 
  71   0.0000       1.106414        30.1070 
  72   0.0000       1.146289        31.1921 
  73   0.0000       1.189727        32.3741 
  74   0.0000       1.228660        33.4335 
  75   0.0000       1.264015        34.3956 
  76   0.0000       1.302162        35.4336 
  77   0.0000       1.333165        36.2773 
  78   0.0000       1.396539        38.0018 
  79   0.0000       1.451956        39.5097 
  80   0.0000       1.476620        40.1809 
  81   0.0000       1.564060        42.5602 
  82   0.0000       1.587020        43.1850 
  83   0.0000       1.606242        43.7081 
  84   0.0000       1.645825        44.7852 
  85   0.0000       1.666854        45.3574 
  86   0.0000       1.673444        45.5367 
  87   0.0000       1.683531        45.8112 
  88   0.0000       1.705020        46.3960 
  89   0.0000       1.762114        47.9496 
  90   0.0000       1.792824        48.7852 
  91   0.0000       1.810707        49.2719 
  92   0.0000       1.857143        50.5354 
  93   0.0000       1.859982        50.6127 
  94   0.0000       1.885086        51.2958 
  95   0.0000       1.904190        51.8156 
  96   0.0000       1.932288        52.5802 
  97   0.0000       1.972574        53.6765 
  98   0.0000       1.995148        54.2907 
  99   0.0000       2.034584        55.3638 
 100   0.0000       2.050394        55.7941 
 101   0.0000       2.063633        56.1543 
 102   0.0000       2.098028        57.0902 
 103   0.0000       2.139741        58.2253 
 104   0.0000       2.210300        60.1453 
 105   0.0000       2.232778        60.7570 
 106   0.0000       2.280691        62.0608 
 107   0.0000       2.314954        62.9931 
 108   0.0000       2.380713        64.7825 
 109   0.0000       2.415894        65.7398 
 110   0.0000       2.447687        66.6049 
 111   0.0000       2.472831        67.2892 
 112   0.0000       2.479911        67.4818 
 113   0.0000       2.513280        68.3898 
 114   0.0000       2.555117        69.5283 
 115   0.0000       2.638645        71.8012 
 116   0.0000       2.681739        72.9738 
 117   0.0000       2.737372        74.4877 
 118   0.0000       2.770553        75.3906 
 119   0.0000       2.797137        76.1140 
 120   0.0000       2.826798        76.9211 
 121   0.0000       2.856998        77.7429 
 122   0.0000       2.883483        78.4636 
 123   0.0000       2.932611        79.8004 
 124   0.0000       2.987470        81.2932 
 125   0.0000       3.064320        83.3844 
 126   0.0000       3.085026        83.9478 
 127   0.0000       3.116469        84.8034 
 128   0.0000       3.146290        85.6149 
 129   0.0000       3.345079        91.0242 
 130   0.0000       3.440480        93.6202 
 131   0.0000       3.515033        95.6489 
 132   0.0000       3.782074       102.9155 

                    ********************************
                    * MULLIKEN POPULATION ANALYSIS *
                    ********************************

--------------------------------------------
MULLIKEN ATOMIC CHARGES AND SPIN POPULATIONS
--------------------------------------------
   0 O :   -0.210535    0.076388
   1 O :   -0.279251   -0.005535
   2 C :    0.053048   -0.041861
   3 C :   -0.025356    0.653146
   4 C :    0.000643   -0.329835
   5 C :   -0.055150    0.726984
   6 C :    0.064403   -0.055853
   7 H :    0.190697   -0.001281
   8 H :    0.045672    0.001584
   9 H :    0.045507   -0.031412
  10 H :    0.031222    0.012040
  11 H :    0.006581   -0.033799
  12 H :    0.063581    0.024990
  13 H :    0.068938    0.004444
Sum of atomic charges         :    0.0000000
Sum of atomic spin populations:    1.0000000

-----------------------------------------------------
MULLIKEN REDUCED ORBITAL CHARGES AND SPIN POPULATIONS
-----------------------------------------------------
CHARGE
  0 O s       :     3.816349  s :     3.816349
      pz      :     1.358735  p :     4.382177
      px      :     1.443242
      py      :     1.580201
      dz2     :     0.005618  d :     0.012009
      dxz     :     0.001046
      dyz     :     0.001059
      dx2y2   :     0.001250
      dxy     :     0.003037
  1 O s       :     3.896682  s :     3.896682
      pz      :     1.454817  p :     4.366488
      px      :     1.391693
      py      :     1.519979
      dz2     :     0.005508  d :     0.016080
      dxz     :     0.002195
      dyz     :     0.002590
      dx2y2   :     0.001601
      dxy     :     0.004186
  2 C s       :     3.159043  s :     3.159043
      pz      :     0.752478  p :     2.718595
      px      :     0.993751
      py      :     0.972366
      dz2     :     0.017999  d :     0.069314
      dxz     :     0.014219
      dyz     :     0.017434
      dx2y2   :     0.007556
      dxy     :     0.012106
  3 C s       :     3.216727  s :     3.216727
      pz      :     0.995927  p :     2.776615
      px      :     0.922370
      py      :     0.858318
      dz2     :     0.002528  d :     0.032013
      dxz     :     0.004618
      dyz     :     0.005309
      dx2y2   :     0.009372
      dxy     :     0.010186
  4 C s       :     3.169260  s :     3.169260
      pz      :     0.958152  p :     2.793543
      px      :     0.883577
      py      :     0.951814
      dz2     :     0.003548  d :     0.036555
      dxz     :     0.005615
      dyz     :     0.006911
      dx2y2   :     0.010619
      dxy     :     0.009862
  5 C s       :     3.227502  s :     3.227502
      pz      :     0.940327  p :     2.794996
      px      :     0.960341
      py      :     0.894329
      dz2     :     0.005044  d :     0.032652
      dxz     :     0.004335
      dyz     :     0.005065
      dx2y2   :     0.008114
      dxy     :     0.010094
  6 C s       :     2.999216  s :     2.999216
      pz      :     0.952211  p :     2.902753
      px      :     0.939775
      py      :     1.010766
      dz2     :     0.008625  d :     0.033628
      dxz     :     0.006017
      dyz     :     0.004534
      dx2y2   :     0.006251
      dxy     :     0.008201
  7 H s       :     0.743027  s :     0.743027
      pz      :     0.036019  p :     0.066276
      px      :     0.013885
      py      :     0.016373
  8 H s       :     0.933543  s :     0.933543
      pz      :     0.003859  p :     0.020785
      px      :     0.011323
      py      :     0.005603
  9 H s       :     0.930387  s :     0.930387
      pz      :     0.006708  p :     0.024106
      px      :     0.003215
      py      :     0.014182
 10 H s       :     0.945269  s :     0.945269
      pz      :     0.006708  p :     0.023509
      px      :     0.012992
      py      :     0.003809
 11 H s       :     0.966654  s :     0.966654
      pz      :     0.005747  p :     0.026765
      px      :     0.007723
      py      :     0.013295
 12 H s       :     0.913507  s :     0.913507
      pz      :     0.013795  p :     0.022913
      px      :     0.004809
      py      :     0.004308
 13 H s       :     0.907386  s :     0.907386
      pz      :     0.004636  p :     0.023676
      px      :     0.008490
      py      :     0.010549

SPIN
  0 O s       :     0.000338  s :     0.000338
      pz      :     0.001703  p :     0.076070
      px      :     0.028633
      py      :     0.045735
      dz2     :    -0.000021  d :    -0.000020
      dxz     :     0.000030
      dyz     :     0.000025
      dx2y2   :     0.000007
      dxy     :    -0.000061
  1 O s       :     0.005385  s :     0.005385
      pz      :     0.013533  p :    -0.011647
      px      :     0.002685
      py      :    -0.027865
      dz2     :     0.000176  d :     0.000726
      dxz     :     0.000021
      dyz     :     0.000007
      dx2y2   :    -0.000005
      dxy     :     0.000527
  2 C s       :    -0.012420  s :    -0.012420
      pz      :    -0.009596  p :    -0.032904
      px      :    -0.016548
      py      :    -0.006761
      dz2     :    -0.000251  d :     0.003463
      dxz     :     0.002086
      dyz     :     0.001588
      dx2y2   :     0.000049
      dxy     :    -0.000010
  3 C s       :     0.089076  s :     0.089076
      pz      :     0.439573  p :     0.566819
      px      :     0.054563
      py      :     0.072682
      dz2     :    -0.000887  d :    -0.002748
      dxz     :    -0.000517
      dyz     :    -0.000939
      dx2y2   :    -0.000250
      dxy     :    -0.000155
  4 C s       :    -0.058358  s :    -0.058358
      pz      :    -0.174516  p :    -0.279503
      px      :    -0.047058
      py      :    -0.057929
      dz2     :     0.000934  d :     0.008026
      dxz     :     0.001406
      dyz     :     0.004020
      dx2y2   :     0.000754
      dxy     :     0.000912
  5 C s       :     0.093990  s :     0.093990
      pz      :     0.431332  p :     0.635535
      px      :     0.146533
      py      :     0.057669
      dz2     :    -0.000762  d :    -0.002541
      dxz     :    -0.000677
      dyz     :    -0.000634
      dx2y2   :    -0.000279
      dxy     :    -0.000189
  6 C s       :    -0.016992  s :    -0.016992
      pz      :    -0.012564  p :    -0.042060
      px      :    -0.025006
      py      :    -0.004490
      dz2     :     0.001965  d :     0.003199
      dxz     :     0.000523
      dyz     :     0.000337
      dx2y2   :     0.000279
      dxy     :     0.000095
  7 H s       :    -0.001991  s :    -0.001991
      pz      :     0.000028  p :     0.000710
      px      :     0.000267
      py      :     0.000415
  8 H s       :     0.001649  s :     0.001649
      pz      :    -0.000031  p :    -0.000065
      px      :    -0.000052
      py      :     0.000018
  9 H s       :    -0.034707  s :    -0.034707
      pz      :     0.002549  p :     0.003295
      px      :     0.000082
      py      :     0.000664
 10 H s       :     0.013214  s :     0.013214
      pz      :    -0.000835  p :    -0.001173
      px      :    -0.000222
      py      :    -0.000116
 11 H s       :    -0.038476  s :    -0.038476
      pz      :     0.003122  p :     0.004677
      px      :     0.001076
      py      :     0.000479
 12 H s       :     0.025118  s :     0.025118
      pz      :    -0.000229  p :    -0.000128
      px      :     0.000075
      py      :     0.000026
 13 H s       :     0.004479  s :     0.004479
      pz      :    -0.000061  p :    -0.000034
      px      :    -0.000046
      py      :     0.000073


                     *******************************
                     * LOEWDIN POPULATION ANALYSIS *
                     *******************************

-------------------------------------------
LOEWDIN ATOMIC CHARGES AND SPIN POPULATIONS
-------------------------------------------
   0 O :   -0.112934    0.068958
   1 O :   -0.109145    0.007259
   2 C :    0.060294    0.000863
   3 C :   -0.025307    0.507846
   4 C :   -0.031167   -0.183683
   5 C :    0.020377    0.577193
   6 C :   -0.050174   -0.008736
   7 H :    0.073468    0.001216
   8 H :    0.021920    0.001064
   9 H :    0.030184   -0.001053
  10 H :    0.032148    0.000961
  11 H :    0.009450    0.003828
  12 H :    0.041380    0.020124
  13 H :    0.039505    0.004161

----------------------------------------------------
LOEWDIN REDUCED ORBITAL CHARGES AND SPIN POPULATIONS
----------------------------------------------------
CHARGE
  0 O s       :     3.611922  s :     3.611922
      pz      :     1.453151  p :     4.480506
      px      :     1.451598
      py      :     1.575757
      dz2     :     0.011238  d :     0.020506
      dxz     :     0.000960
      dyz     :     0.001343
      dx2y2   :     0.002160
      dxy     :     0.004804
  1 O s       :     3.653049  s :     3.653049
      pz      :     1.503787  p :     4.429643
      px      :     1.396654
      py      :     1.529202
      dz2     :     0.008833  d :     0.026453
      dxz     :     0.003389
      dyz     :     0.004301
      dx2y2   :     0.002808
      dxy     :     0.007122
  2 C s       :     2.868307  s :     2.868307
      pz      :     0.862405  p :     2.914989
      px      :     1.038674
      py      :     1.013911
      dz2     :     0.038743  d :     0.156410
      dxz     :     0.031257
      dyz     :     0.040954
      dx2y2   :     0.015299
      dxy     :     0.030157
  3 C s       :     2.903584  s :     2.903584
      pz      :     0.984439  p :     3.041563
      px      :     1.020773
      py      :     1.036350
      dz2     :     0.005841  d :     0.080160
      dxz     :     0.010644
      dyz     :     0.010301
      dx2y2   :     0.023543
      dxy     :     0.029831
  4 C s       :     2.875590  s :     2.875590
      pz      :     0.974545  p :     3.060646
      px      :     1.036645
      py      :     1.049455
      dz2     :     0.007757  d :     0.094932
      dxz     :     0.012498
      dyz     :     0.017548
      dx2y2   :     0.028626
      dxy     :     0.028503
  5 C s       :     2.889019  s :     2.889019
      pz      :     0.956124  p :     3.010563
      px      :     1.002335
      py      :     1.052104
      dz2     :     0.009994  d :     0.080041
      dxz     :     0.009763
      dyz     :     0.012612
      dx2y2   :     0.023595
      dxy     :     0.024076
  6 C s       :     2.849776  s :     2.849776
      pz      :     1.041265  p :     3.113646
      px      :     1.022410
      py      :     1.049971
      dz2     :     0.022789  d :     0.086752
      dxz     :     0.015054
      dyz     :     0.011732
      dx2y2   :     0.016581
      dxy     :     0.020596
  7 H s       :     0.748516  s :     0.748516
      pz      :     0.097400  p :     0.178016
      px      :     0.037439
      py      :     0.043176
  8 H s       :     0.911012  s :     0.911012
      pz      :     0.013783  p :     0.067068
      px      :     0.033868
      py      :     0.019417
  9 H s       :     0.895446  s :     0.895446
      pz      :     0.021478  p :     0.074371
      px      :     0.011881
      py      :     0.041012
 10 H s       :     0.899255  s :     0.899255
      pz      :     0.019468  p :     0.068597
      px      :     0.036711
      py      :     0.012417
 11 H s       :     0.905533  s :     0.905533
      pz      :     0.020068  p :     0.085017
      px      :     0.026496
      py      :     0.038454
 12 H s       :     0.890990  s :     0.890990
      pz      :     0.040066  p :     0.067630
      px      :     0.013884
      py      :     0.013681
 13 H s       :     0.890251  s :     0.890251
      pz      :     0.013224  p :     0.070244
      px      :     0.025055
      py      :     0.031965

SPIN
  0 O s       :     0.000751  s :     0.000751
      pz      :     0.000930  p :     0.068299
      px      :     0.025525
      py      :     0.041844
      dz2     :    -0.000048  d :    -0.000092
      dxz     :     0.000020
      dyz     :     0.000010
      dx2y2   :    -0.000011
      dxy     :    -0.000063
  1 O s       :     0.012439  s :     0.012439
      pz      :     0.012280  p :    -0.006591
      px      :     0.004610
      py      :    -0.023481
      dz2     :     0.000143  d :     0.001411
      dxz     :     0.000023
      dyz     :     0.000002
      dx2y2   :     0.000005
      dxy     :     0.001237
  2 C s       :     0.000303  s :     0.000303
      pz      :    -0.001725  p :    -0.008139
      px      :    -0.004478
      py      :    -0.001935
      dz2     :    -0.000137  d :     0.008699
      dxz     :     0.004793
      dyz     :     0.003499
      dx2y2   :     0.000161
      dxy     :     0.000383
  3 C s       :     0.020252  s :     0.020252
      pz      :     0.398448  p :     0.492924
      px      :     0.038775
      py      :     0.055701
      dz2     :    -0.000899  d :    -0.005330
      dxz     :    -0.001241
      dyz     :    -0.001337
      dx2y2   :    -0.001017
      dxy     :    -0.000837
  4 C s       :    -0.011116  s :    -0.011116
      pz      :    -0.134563  p :    -0.192328
      px      :    -0.028447
      py      :    -0.029318
      dz2     :     0.001979  d :     0.019761
      dxz     :     0.003227
      dyz     :     0.009435
      dx2y2   :     0.002305
      dxy     :     0.002814
  5 C s       :     0.021484  s :     0.021484
      pz      :     0.391996  p :     0.560958
      px      :     0.129905
      py      :     0.039057
      dz2     :    -0.001330  d :    -0.005249
      dxz     :    -0.000722
      dyz     :    -0.001435
      dx2y2   :    -0.000916
      dxy     :    -0.000847
  6 C s       :    -0.002648  s :    -0.002648
      pz      :    -0.003723  p :    -0.014155
      px      :    -0.009190
      py      :    -0.001242
      dz2     :     0.004852  d :     0.008068
      dxz     :     0.001282
      dyz     :     0.000822
      dx2y2   :     0.000882
      dxy     :     0.000229
  7 H s       :    -0.001304  s :    -0.001304
      pz      :     0.000236  p :     0.002520
      px      :     0.000892
      py      :     0.001392
  8 H s       :     0.001382  s :     0.001382
      pz      :    -0.000118  p :    -0.000318
      px      :    -0.000198
      py      :    -0.000003
  9 H s       :    -0.015582  s :    -0.015582
      pz      :     0.010073  p :     0.014529
      px      :     0.000966
      py      :     0.003489
 10 H s       :     0.006162  s :     0.006162
      pz      :    -0.003280  p :    -0.005201
      px      :    -0.001230
      py      :    -0.000691
 11 H s       :    -0.015691  s :    -0.015691
      pz      :     0.012222  p :     0.019519
      px      :     0.004628
      py      :     0.002669
 12 H s       :     0.020715  s :     0.020715
      pz      :    -0.000458  p :    -0.000591
      px      :    -0.000111
      py      :    -0.000023
 13 H s       :     0.004372  s :     0.004372
      pz      :    -0.000184  p :    -0.000211
      px      :    -0.000109
      py      :     0.000083


                      *****************************
                      * MAYER POPULATION ANALYSIS *
                      *****************************

  NA   - Mulliken gross atomic population
  ZA   - Total nuclear charge
  QA   - Mulliken gross atomic charge
  VA   - Mayer's total valence
  BVA  - Mayer's bonded valence
  FA   - Mayer's free valence

  ATOM       NA         ZA         QA         VA         BVA        FA
  0 O      8.2105     8.0000    -0.2105     1.9958     1.9897     0.0062
  1 O      8.2793     8.0000    -0.2793     1.8935     1.8903     0.0032
  2 C      5.9470     6.0000     0.0530     3.9554     3.9538     0.0016
  3 C      6.0254     6.0000    -0.0254     3.8160     3.5362     0.2799
  4 C      5.9994     6.0000     0.0006     3.8491     3.8000     0.0491
  5 C      6.0552     6.0000    -0.0552     3.9159     3.5646     0.3513
  6 C      5.9356     6.0000     0.0644     3.8165     3.8148     0.0017
  7 H      0.8093     1.0000     0.1907     1.0008     1.0008     0.0000
  8 H      0.9543     1.0000     0.0457     0.9904     0.9904     0.0000
  9 H      0.9545     1.0000     0.0455     0.9931     0.9918     0.0012
 10 H      0.9688     1.0000     0.0312     0.9858     0.9856     0.0002
 11 H      0.9934     1.0000     0.0066     0.9969     0.9954     0.0015
 12 H      0.9364     1.0000     0.0636     0.9764     0.9757     0.0006
 13 H      0.9311     1.0000     0.0689     1.0082     1.0082     0.0000

  Mayer bond orders larger than 0.100000
B(  0-O ,  1-O ) :   0.8874 B(  0-O ,  7-H ) :   0.9722 B(  1-O ,  2-C ) :   0.8935 
B(  2-C ,  3-C ) :   0.9966 B(  2-C ,  6-C ) :   1.0226 B(  2-C ,  8-H ) :   0.9526 
B(  3-C ,  4-C ) :   1.3708 B(  3-C ,  9-H ) :   0.9945 B(  4-C ,  5-C ) :   1.3977 
B(  4-C , 10-H ) :   0.9908 B(  5-C ,  6-C ) :   0.9855 B(  5-C , 11-H ) :   0.9961 
B(  6-C , 12-H ) :   0.9307 B(  6-C , 13-H ) :   0.9306 


------------------
HIRSHFELD ANALYSIS
------------------

Total integrated alpha density =     27.000018708
Total integrated beta density  =     26.000015613

  ATOM     CHARGE      SPIN    
   0 O   -0.198778    0.066975
   1 O   -0.123723    0.016882
   2 C    0.060040    0.026729
   3 C   -0.028891    0.397892
   4 C   -0.040227   -0.073996
   5 C   -0.009672    0.453208
   6 C   -0.049024    0.026087
   7 H    0.164109    0.002403
   8 H    0.037573    0.002627
   9 H    0.043538    0.025820
  10 H    0.042279   -0.005894
  11 H    0.036873    0.034562
  12 H    0.033159    0.021390
  13 H    0.032709    0.005319

  TOTAL  -0.000034    1.000003

-------
TIMINGS
-------

Total SCF time: 0 days 0 hours 0 min 57 sec 

Total time                  ....      57.602 sec
Sum of individual times     ....      57.447 sec  ( 99.7%)

Fock matrix formation       ....      55.623 sec  ( 96.6%)
  Split-RI-J                ....       3.477 sec  (  6.3% of F)
  Chain of spheres X        ....      38.445 sec  ( 69.1% of F)
  XC integration            ....      13.709 sec  ( 24.6% of F)
    Basis function eval.    ....       4.041 sec  ( 29.5% of XC)
    Density eval.           ....       3.749 sec  ( 27.3% of XC)
    XC-Functional eval.     ....       1.376 sec  ( 10.0% of XC)
    XC-Potential eval.      ....       4.209 sec  ( 30.7% of XC)
Diagonalization             ....       0.087 sec  (  0.2%)
Density matrix formation    ....       0.007 sec  (  0.0%)
Population analysis         ....       0.354 sec  (  0.6%)
Initial guess               ....       0.214 sec  (  0.4%)
Orbital Transformation      ....       0.000 sec  (  0.0%)
Orbital Orthonormalization  ....       0.000 sec  (  0.0%)
DIIS solution               ....       0.022 sec  (  0.0%)
Grid generation             ....       1.140 sec  (  2.0%)

Maximum memory used throughout the entire SCF-calculation: 63.6 MB


-------------------------------------------------------------------------------
                          DFT DISPERSION CORRECTION                            
                                                                               
                              DFTD3 V3.1  Rev 1                                
                          USING Becke-Johnson damping                          
-------------------------------------------------------------------------------
The PBE0 functional is recognized
Active option DFTDOPT                   ...         4   

molecular C6(AA) [au] = 1775.273840 


            DFT-D V3
 parameters
 s6 scaling factor         :     1.0000 
 a1 scaling factor         :     0.4145 
 s8 scaling factor         :     1.2177 
 a2 scaling factor         :     4.8593 
 ad hoc parameters k1-k3   :    16.0000     1.3333    -4.0000 

 Edisp/kcal,au: -6.376503350852  -0.010161603823 
 E6   /kcal   :  -4.047110569 
 E8   /kcal   :  -2.329392782 
 % E8         :  36.530879921 

-------------------------   ----------------
Dispersion correction           -0.010161604
-------------------------   ----------------


-------------------------   --------------------
FINAL SINGLE POINT ENERGY      -344.368064922547
-------------------------   --------------------

------------------------------------------------------------------------------
                         ORCA SCF GRADIENT CALCULATION
------------------------------------------------------------------------------

 ... reading COSX grid (gridx3)
Gradient of the Kohn-Sham DFT energy:
Kohn-Sham wavefunction type      ... UKS
Hartree-Fock exchange scaling    ...    0.250
Number of operators              ...    2
Number of atoms                  ...   14
Basis set dimensions             ...  133
Integral neglect threshold       ... 2.5e-11
Integral primitive cutoff        ... 2.5e-12
SHARK Integral package           ... ON

Nuc. rep. gradient       (SHARK) ... done (  0.0 sec)
HCore & Overlap gradient (SHARK) ... done (  0.1 sec)
RI-J gradient            (SHARK) ... done (  0.6 sec)
COSX-gradient                    ... done (  6.7 sec)
Exchange-correlation gradient    ... done
Dispersion correction            ... done

------------------
CARTESIAN GRADIENT
------------------

   1   O   :   -0.032862946   -0.028844661   -0.004683508
   2   O   :    0.049956607    0.024000321    0.010349986
   3   C   :    0.003001136    0.003302408   -0.028600577
   4   C   :   -0.012417715    0.006630222    0.008447549
   5   C   :    0.003769126    0.007136002    0.005198336
   6   C   :    0.036239010   -0.057436551    0.010274660
   7   C   :   -0.018166627    0.007631016   -0.008833486
   8   H   :   -0.000127423   -0.000762574    0.005336511
   9   H   :   -0.001727088    0.000276932    0.003122834
  10   H   :   -0.000856973    0.000027015    0.000238024
  11   H   :   -0.000657670   -0.002565242   -0.000631461
  12   H   :   -0.029235341    0.041666092   -0.001119526
  13   H   :    0.004281623   -0.002386427   -0.000175444
  14   H   :   -0.001308759    0.001352620    0.001072471

Difference to translation invariance:
           :   -0.0001130390    0.0000271717   -0.0000036309

Difference to rotation invariance:
           :    0.0005029976    0.0000331559   -0.0003370659

Norm of the cartesian gradient     ...    0.1190262397
RMS gradient                       ...    0.0183661475
MAX gradient                       ...    0.0574365514

-------
TIMINGS
-------

Total SCF gradient time            ...       11.242 sec

One electron gradient       ....       0.097 sec  (  0.9%)
RI-J Coulomb gradient       ....       0.592 sec  (  5.3%)
COSX gradient               ....       6.695 sec  ( 59.6%)
XC gradient                 ....       3.564 sec  ( 31.7%)

Maximum memory used throughout the entire SCFGRAD-calculation: 50.5 MB

                            ***************************************
                            *     ORCA property calculations      *
                            ***************************************

                                    ---------------------
                                    Active property flags
                                    ---------------------
   (+) Dipole Moment


------------------------------------------------------------------------------
                       ORCA ELECTRIC PROPERTIES CALCULATION
------------------------------------------------------------------------------

Dipole Moment Calculation                       ... on
Quadrupole Moment Calculation                   ... off
Polarizability Calculation                      ... off
GBWName                                         ... 5_1_orca.gbw
Electron density                                ... 5_1_orca.scfp
The origin for moment calculation is the CENTER OF MASS  = (-0.319743,  0.013508  0.318465)

-------------
DIPOLE MOMENT
-------------
                                X             Y             Z
Electronic contribution:     -1.16428       0.41227       1.81464
Nuclear contribution   :      1.46774      -0.38942      -1.80437
                        -----------------------------------------
Total Dipole Moment    :      0.30345       0.02285       0.01026
                        -----------------------------------------
Magnitude (a.u.)       :      0.30448
Magnitude (Debye)      :      0.77394



--------------------
Rotational spectrum 
--------------------
 
Rotational constants in cm-1:     0.166693     0.076877     0.067254 
Rotational constants in MHz :  4997.338299  2304.714897  2016.212811 

 Dipole components along the rotational axes: 
x,y,z [a.u.] :    -0.279151     0.001511     0.121586 
x,y,z [Debye]:    -0.709547     0.003841     0.309047 

 

Timings for individual modules:

Sum of individual times         ...       69.064 sec (=   1.151 min)
GTO integral calculation        ...        0.165 sec (=   0.003 min)   0.2 %
SCF iterations                  ...       57.628 sec (=   0.960 min)  83.4 %
SCF Gradient evaluation         ...       11.270 sec (=   0.188 min)  16.3 %
                             ****ORCA TERMINATED NORMALLY****
TOTAL RUN TIME: 0 days 0 hours 1 minutes 9 seconds 218 msec
