
                                 *****************
                                 * O   R   C   A *
                                 *****************

                                            #,                                       
                                            ###                                      
                                            ####                                     
                                            #####                                    
                                            ######                                   
                                           ########,                                 
                                     ,,################,,,,,                         
                               ,,#################################,,                 
                          ,,##########################################,,             
                       ,#########################################, ''#####,          
                    ,#############################################,,   '####,        
                  ,##################################################,,,,####,       
                ,###########''''           ''''###############################       
              ,#####''   ,,,,##########,,,,          '''####'''          '####       
            ,##' ,,,,###########################,,,                        '##       
           ' ,,###''''                  '''############,,,                           
         ,,##''                                '''############,,,,        ,,,,,,###''
      ,#''                                            '''#######################'''  
     '                                                          ''''####''''         
             ,#######,   #######,   ,#######,      ##                                
            ,#'     '#,  ##    ##  ,#'     '#,    #''#        ######   ,####,        
            ##       ##  ##   ,#'  ##            #'  '#       #        #'  '#        
            ##       ##  #######   ##           ,######,      #####,   #    #        
            '#,     ,#'  ##    ##  '#,     ,#' ,#      #,         ##   #,  ,#        
             '#######'   ##     ##  '#######'  #'      '#     #####' # '####'        



                  #######################################################
                  #                        -***-                        #
                  #          Department of theory and spectroscopy      #
                  #    Directorship and core code : Frank Neese         #
                  #        Max Planck Institute fuer Kohlenforschung    #
                  #                Kaiser Wilhelm Platz 1               #
                  #                 D-45470 Muelheim/Ruhr               #
                  #                      Germany                        #
                  #                                                     #
                  #                  All rights reserved                #
                  #                        -***-                        #
                  #######################################################


                         Program Version 5.0.4 -  RELEASE  -


 With contributions from (in alphabetic order):
   Daniel Aravena         : Magnetic Suceptibility
   Michael Atanasov       : Ab Initio Ligand Field Theory (pilot matlab implementation)
   Alexander A. Auer      : GIAO ZORA, VPT2 properties, NMR spectrum
   Ute Becker             : Parallelization
   Giovanni Bistoni       : ED, misc. LED, open-shell LED, HFLD
   Martin Brehm           : Molecular dynamics
   Dmytro Bykov           : SCF Hessian
   Vijay G. Chilkuri      : MRCI spin determinant printing, contributions to CSF-ICE
   Dipayan Datta          : RHF DLPNO-CCSD density
   Achintya Kumar Dutta   : EOM-CC, STEOM-CC
   Dmitry Ganyushin       : Spin-Orbit,Spin-Spin,Magnetic field MRCI
   Miquel Garcia          : C-PCM and meta-GGA Hessian, CC/C-PCM, Gaussian charge scheme
   Yang Guo               : DLPNO-NEVPT2, F12-NEVPT2, CIM, IAO-localization
   Andreas Hansen         : Spin unrestricted coupled pair/coupled cluster methods
   Benjamin Helmich-Paris : MC-RPA, TRAH-SCF, COSX integrals
   Lee Huntington         : MR-EOM, pCC
   Robert Izsak           : Overlap fitted RIJCOSX, COSX-SCS-MP3, EOM
   Marcus Kettner         : VPT2
   Christian Kollmar      : KDIIS, OOCD, Brueckner-CCSD(T), CCSD density, CASPT2, CASPT2-K
   Simone Kossmann        : Meta GGA functionals, TD-DFT gradient, OOMP2, MP2 Hessian
   Martin Krupicka        : Initial AUTO-CI
   Lucas Lang             : DCDCAS
   Marvin Lechner         : AUTO-CI (C++ implementation), FIC-MRCC
   Dagmar Lenk            : GEPOL surface, SMD
   Dimitrios Liakos       : Extrapolation schemes; Compound Job, initial MDCI parallelization
   Dimitrios Manganas     : Further ROCIS development; embedding schemes
   Dimitrios Pantazis     : SARC Basis sets
   Anastasios Papadopoulos: AUTO-CI, single reference methods and gradients
   Taras Petrenko         : DFT Hessian,TD-DFT gradient, ASA, ECA, R-Raman, ABS, FL, XAS/XES, NRVS
   Peter Pinski           : DLPNO-MP2, DLPNO-MP2 Gradient
   Christoph Reimann      : Effective Core Potentials
   Marius Retegan         : Local ZFS, SOC
   Christoph Riplinger    : Optimizer, TS searches, QM/MM, DLPNO-CCSD(T), (RO)-DLPNO pert. Triples
   Tobias Risthaus        : Range-separated hybrids, TD-DFT gradient, RPA, STAB
   Michael Roemelt        : Original ROCIS implementation
   Masaaki Saitow         : Open-shell DLPNO-CCSD energy and density
   Barbara Sandhoefer     : DKH picture change effects
   Avijit Sen             : IP-ROCIS
   Kantharuban Sivalingam : CASSCF convergence, NEVPT2, FIC-MRCI
   Bernardo de Souza      : ESD, SOC TD-DFT
   Georgi Stoychev        : AutoAux, RI-MP2 NMR, DLPNO-MP2 response
   Willem Van den Heuvel  : Paramagnetic NMR
   Boris Wezisla          : Elementary symmetry handling
   Frank Wennmohs         : Technical directorship


 We gratefully acknowledge several colleagues who have allowed us to
 interface, adapt or use parts of their codes:
   Stefan Grimme, W. Hujo, H. Kruse, P. Pracht,  : VdW corrections, initial TS optimization,
                  C. Bannwarth, S. Ehlert          DFT functionals, gCP, sTDA/sTD-DF
   Ed Valeev, F. Pavosevic, A. Kumar             : LibInt (2-el integral package), F12 methods
   Garnet Chan, S. Sharma, J. Yang, R. Olivares  : DMRG
   Ulf Ekstrom                                   : XCFun DFT Library
   Mihaly Kallay                                 : mrcc  (arbitrary order and MRCC methods)
   Jiri Pittner, Ondrej Demel                    : Mk-CCSD
   Frank Weinhold                                : gennbo (NPA and NBO analysis)
   Christopher J. Cramer and Donald G. Truhlar   : smd solvation model
   Lars Goerigk                                  : TD-DFT with DH, B97 family of functionals
   V. Asgeirsson, H. Jonsson                     : NEB implementation
   FAccTs GmbH                                   : IRC, NEB, NEB-TS, DLPNO-Multilevel, CI-OPT
                                                   MM, QMMM, 2- and 3-layer-ONIOM, Crystal-QMMM,
                                                   LR-CPCM, SF, NACMEs, symmetry and pop. for TD-DFT,
                                                   nearIR, NL-DFT gradient (VV10), updates on ESD,
                                                   ML-optimized integration grids
   S Lehtola, MJT Oliveira, MAL Marques          : LibXC Library
   Liviu Ungur et al                             : ANISO software


 Your calculation uses the libint2 library for the computation of 2-el integrals
 For citations please refer to: http://libint.valeyev.net

 Your ORCA version has been built with support for libXC version: 5.1.0
 For citations please refer to: https://tddft.org/programs/libxc/

 This ORCA versions uses:
   CBLAS   interface :  Fast vector & matrix operations
   LAPACKE interface :  Fast linear algebra routines
   SCALAPACK package :  Parallel linear algebra routines
   Shared memory     :  Shared parallel matrices
   BLAS/LAPACK       :  OpenBLAS 0.3.15  USE64BITINT DYNAMIC_ARCH NO_AFFINITY SkylakeX SINGLE_THREADED
        Core in use  :  SkylakeX
   Copyright (c) 2011-2014, The OpenBLAS Project


Your calculation utilizes the atom-pairwise dispersion correction
with the Becke-Johnson damping scheme (D3BJ)
Cite in your paper:
S.Grimme, S.Ehrlich, L.Goerigk, J Comput Chem, (2011), 32, 1456–1465 
S.Grimme, J.Antony, S.Ehrlich and H.Krieg, J.Chem.Phys., 132, (2010), 154104 
   

================================================================================

----- Orbital basis set information -----
Your calculation utilizes the basis: def2-SVP
   F. Weigend and R. Ahlrichs, Phys. Chem. Chem. Phys. 7, 3297 (2005).

----- AuxJ basis set information -----
Your calculation utilizes the auxiliary basis: def2/J
   F. Weigend, Phys. Chem. Chem. Phys. 8, 1057 (2006).

================================================================================
                                        WARNINGS
                       Please study these warnings very carefully!
================================================================================


WARNING: your system is open-shell and RHF/RKS was chosen
  ===> : WILL SWITCH to UHF/UKS


INFO   : the flag for use of the SHARK integral package has been found!

================================================================================
                                       INPUT FILE
================================================================================
NAME = 5_2_orca.inp
|  1> ! EnGrad PBE0 RIJCOSX D3BJ def2-SVP def2/J 
|  2> %output 
|  3> xyzfile=True 
|  4> end 
|  5> %scf 
|  6> maxiter 250 
|  7> end
|  8> %output
|  9> Print[P_Hirshfeld] = 1
| 10> end
| 11> % maxcore
| 12> 4000
| 13> *xyz 0 2
| 14> O   -2.12718294  -0.89280762   1.00076212 
| 15> O   -0.91551320   0.09920053   1.05928857 
| 16> C   -0.65892869   0.57797006  -0.27778633 
| 17> C    0.52369701   1.40228490   0.13340776 
| 18> C    1.59255476   0.50672729   0.22315017 
| 19> C    1.24327006  -0.72237259  -0.32788343 
| 20> C   -0.08944336  -0.60772219  -1.03800262 
| 21> H   -2.15904576  -1.05852417   1.95692658 
| 22> H   -1.55294922   1.08946767  -0.67227807 
| 23> H    0.45603816   2.41921535   0.52553891 
| 24> H    2.55395900   0.70826806   0.70282538 
| 25> H    1.80744176  -1.62586431  -0.25073852 
| 26> H    0.09154722  -0.42863654  -2.11558163 
| 27> H   -0.76544182  -1.46717622  -0.91987984 
| 28> *
| 29> 
| 30>                          ****END OF INPUT****
================================================================================

                     *******************************
                     * Energy+Gradient Calculation *
                     *******************************

---------------------------------
CARTESIAN COORDINATES (ANGSTROEM)
---------------------------------
  O     -2.127183   -0.892808    1.000762
  O     -0.915513    0.099201    1.059289
  C     -0.658929    0.577970   -0.277786
  C      0.523697    1.402285    0.133408
  C      1.592555    0.506727    0.223150
  C      1.243270   -0.722373   -0.327883
  C     -0.089443   -0.607722   -1.038003
  H     -2.159046   -1.058524    1.956927
  H     -1.552949    1.089468   -0.672278
  H      0.456038    2.419215    0.525539
  H      2.553959    0.708268    0.702825
  H      1.807442   -1.625864   -0.250739
  H      0.091547   -0.428637   -2.115582
  H     -0.765442   -1.467176   -0.919880

----------------------------
CARTESIAN COORDINATES (A.U.)
----------------------------
  NO LB      ZA    FRAG     MASS         X           Y           Z
   0 O     8.0000    0    15.999   -4.019793   -1.687162    1.891166
   1 O     8.0000    0    15.999   -1.730069    0.187462    2.001765
   2 C     6.0000    0    12.011   -1.245195    1.092205   -0.524940
   3 C     6.0000    0    12.011    0.989644    2.649934    0.252104
   4 C     6.0000    0    12.011    3.009492    0.957576    0.421693
   5 C     6.0000    0    12.011    2.349440   -1.365086   -0.619610
   6 C     6.0000    0    12.011   -0.169023   -1.148429   -1.961541
   7 H     1.0000    0     1.008   -4.080005   -2.000321    3.698055
   8 H     1.0000    0     1.008   -2.934649    2.058796   -1.270421
   9 H     1.0000    0     1.008    0.861787    4.571654    0.993125
  10 H     1.0000    0     1.008    4.826283    1.338433    1.328147
  11 H     1.0000    0     1.008    3.415570   -3.072438   -0.473827
  12 H     1.0000    0     1.008    0.172999   -0.810006   -3.997870
  13 H     1.0000    0     1.008   -1.446475   -2.772561   -1.738321

--------------------------------
INTERNAL COORDINATES (ANGSTROEM)
--------------------------------
 O      0   0   0     0.000000000000     0.00000000     0.00000000
 O      1   0   0     1.567051075698     0.00000000     0.00000000
 C      2   1   0     1.443199626468   108.23249102     0.00000000
 C      3   2   1     1.499059398888    93.93068227   182.14146665
 C      4   3   2     1.397331035480   105.58401754    80.74589190
 C      5   4   3     1.391518718882   110.40550927    11.06183702
 C      6   5   4     1.514443474704   109.85869493     9.18384235
 H      1   2   3     0.970941650569    95.54569076   182.30519079
 H      3   2   1     1.102962486228   109.94395840    59.49245556
 H      4   3   2     1.092012865730   124.17341562   275.09296241
 H      5   4   3     1.093162888938   125.64435827   194.15448912
 H      6   5   4     1.067959892659   125.87695388   190.54694006
 H      7   6   5     1.107251454222   108.94933677    95.88313663
 H      7   6   5     1.099812774412   115.55463058   219.42407998

---------------------------
INTERNAL COORDINATES (A.U.)
---------------------------
 O      0   0   0     0.000000000000     0.00000000     0.00000000
 O      1   0   0     2.961297370937     0.00000000     0.00000000
 C      2   1   0     2.727252050603   108.23249102     0.00000000
 C      3   2   1     2.832811722380    93.93068227   182.14146665
 C      4   3   2     2.640572975486   105.58401754    80.74589190
 C      5   4   3     2.629589288912   110.40550927    11.06183702
 C      6   5   4     2.861883412495   109.85869493     9.18384235
 H      1   2   3     1.834813811593    95.54569076   182.30519079
 H      3   2   1     2.084297034959   109.94395840    59.49245556
 H      4   3   2     2.063605250949   124.17341562   275.09296241
 H      5   4   3     2.065778479859   125.64435827   194.15448912
 H      6   5   4     2.018151719138   125.87695388   190.54694006
 H      7   6   5     2.092402009866   108.94933677    95.88313663
 H      7   6   5     2.078344942227   115.55463058   219.42407998

---------------------
BASIS SET INFORMATION
---------------------
There are 3 groups of distinct atoms

 Group   1 Type O   : 7s4p1d contracted to 3s2p1d pattern {511/31/1}
 Group   2 Type C   : 7s4p1d contracted to 3s2p1d pattern {511/31/1}
 Group   3 Type H   : 4s1p contracted to 2s1p pattern {31/1}

Atom   0O    basis set group =>   1
Atom   1O    basis set group =>   1
Atom   2C    basis set group =>   2
Atom   3C    basis set group =>   2
Atom   4C    basis set group =>   2
Atom   5C    basis set group =>   2
Atom   6C    basis set group =>   2
Atom   7H    basis set group =>   3
Atom   8H    basis set group =>   3
Atom   9H    basis set group =>   3
Atom  10H    basis set group =>   3
Atom  11H    basis set group =>   3
Atom  12H    basis set group =>   3
Atom  13H    basis set group =>   3
---------------------------------
AUXILIARY/J BASIS SET INFORMATION
---------------------------------
There are 3 groups of distinct atoms

 Group   1 Type O   : 12s5p4d2f1g contracted to 6s4p3d1f1g pattern {711111/2111/211/2/1}
 Group   2 Type C   : 12s5p4d2f1g contracted to 6s4p3d1f1g pattern {711111/2111/211/2/1}
 Group   3 Type H   : 5s2p1d contracted to 3s1p1d pattern {311/2/1}

Atom   0O    basis set group =>   1
Atom   1O    basis set group =>   1
Atom   2C    basis set group =>   2
Atom   3C    basis set group =>   2
Atom   4C    basis set group =>   2
Atom   5C    basis set group =>   2
Atom   6C    basis set group =>   2
Atom   7H    basis set group =>   3
Atom   8H    basis set group =>   3
Atom   9H    basis set group =>   3
Atom  10H    basis set group =>   3
Atom  11H    basis set group =>   3
Atom  12H    basis set group =>   3
Atom  13H    basis set group =>   3
------------------------------------------------------------------------------
                           ORCA GTO INTEGRAL CALCULATION
                           -- RI-GTO INTEGRALS CHOSEN --
------------------------------------------------------------------------------
------------------------------------------------------------------------------
                   ___                                                        
                  /   \      - P O W E R E D   B Y -                         
                 /     \                                                     
                 |  |  |   _    _      __       _____    __    __             
                 |  |  |  | |  | |    /  \     |  _  \  |  |  /  |          
                  \  \/   | |  | |   /    \    | | | |  |  | /  /          
                 / \  \   | |__| |  /  /\  \   | |_| |  |  |/  /          
                |  |  |   |  __  | /  /__\  \  |    /   |      \           
                |  |  |   | |  | | |   __   |  |    \   |  |\   \          
                \     /   | |  | | |  |  |  |  | |\  \  |  | \   \       
                 \___/    |_|  |_| |__|  |__|  |_| \__\ |__|  \__/        
                                                                              
                      - O R C A' S   B I G   F R I E N D -                    
                                      &                                       
                       - I N T E G R A L  F E E D E R -                       
                                                                              
 v1 FN, 2020, v2 2021                                                         
------------------------------------------------------------------------------


Reading SHARK input file 5_2_orca.SHARKINP.tmp ... ok
----------------------
SHARK INTEGRAL PACKAGE
----------------------

Number of atoms                             ...     14
Number of basis functions                   ...    133
Number of shells                            ...     63
Maximum angular momentum                    ...      2
Integral batch strategy                     ... SHARK/LIBINT Hybrid
RI-J (if used) integral strategy            ... SPLIT-RIJ (Revised 2003 algorithm where possible)
Printlevel                                  ...      1
Contraction scheme used                     ... SEGMENTED contraction
Coulomb Range Separation                    ... NOT USED
Exchange Range Separation                   ... NOT USED
Finite Nucleus Model                        ... NOT USED
Auxiliary Coulomb fitting basis             ... AVAILABLE
   # of basis functions in Aux-J            ...    420
   # of shells in Aux-J                     ...    140
   Maximum angular momentum in Aux-J        ...      4
Auxiliary J/K fitting basis                 ... NOT available
Auxiliary Correlation fitting basis         ... NOT available
Auxiliary 'external' fitting basis          ... NOT available
Integral threshold                          ...     2.500000e-11
Primitive cut-off                           ...     2.500000e-12
Primitive pair pre-selection threshold      ...     2.500000e-12

Calculating pre-screening integrals         ... done (  0.0 sec) Dimension = 63
Organizing shell pair data                  ... done (  0.0 sec)
Shell pair information
Total number of shell pairs                 ...      2016
Shell pairs after pre-screening             ...      1968
Total number of primitive shell pairs       ...      7252
Primitive shell pairs kept                  ...      5372
          la=0 lb=0:    608 shell pairs
          la=1 lb=0:    719 shell pairs
          la=1 lb=1:    228 shell pairs
          la=2 lb=0:    239 shell pairs
          la=2 lb=1:    146 shell pairs
          la=2 lb=2:     28 shell pairs

Calculating one electron integrals          ... done (  0.0 sec)
Calculating RI/J V-Matrix + Cholesky decomp.... done (  0.0 sec)
Calculating Nuclear repulsion               ... done (  0.0 sec) ENN=    302.525853316875 Eh

SHARK setup successfully completed in   0.1 seconds

Maximum memory used throughout the entire GTOINT-calculation: 17.0 MB
-------------------------------------------------------------------------------
                                 ORCA SCF
-------------------------------------------------------------------------------

------------
SCF SETTINGS
------------
Hamiltonian:
 Density Functional     Method          .... DFT(GTOs)
 Exchange Functional    Exchange        .... PBE
   PBE kappa parameter   XKappa         ....  0.804000
   PBE mue parameter    XMuePBE         ....  0.219520
 Correlation Functional Correlation     .... PBE
   PBE beta parameter  CBetaPBE         ....  0.066725
 LDA part of GGA corr.  LDAOpt          .... PW91-LDA
 Gradients option       PostSCFGGA      .... off
 Hybrid DFT is turned on
   Fraction HF Exchange ScalHFX         ....  0.250000
   Scaling of DF-GGA-X  ScalDFX         ....  0.750000
   Scaling of DF-GGA-C  ScalDFC         ....  1.000000
   Scaling of DF-LDA-C  ScalLDAC        ....  1.000000
   Perturbative correction              ....  0.000000
   Density functional embedding theory  .... OFF
   NL short-range parameter             ....  6.900000
 RI-approximation to the Coulomb term is turned on
   Number of AuxJ basis functions       .... 420
   RIJ-COSX (HFX calculated with COS-X)).... on


General Settings:
 Integral files         IntName         .... 5_2_orca
 Hartree-Fock type      HFTyp           .... UHF
 Total Charge           Charge          ....    0
 Multiplicity           Mult            ....    2
 Number of Electrons    NEL             ....   53
 Basis Dimension        Dim             ....  133
 Nuclear Repulsion      ENuc            ....    302.5258533169 Eh

Convergence Acceleration:
 DIIS                   CNVDIIS         .... on
   Start iteration      DIISMaxIt       ....    12
   Startup error        DIISStart       ....  0.200000
   # of expansion vecs  DIISMaxEq       ....     5
   Bias factor          DIISBfac        ....   1.050
   Max. coefficient     DIISMaxC        ....  10.000
 Trust-Rad. Augm. Hess. CNVTRAH         .... auto
   Auto Start mean grad. ratio tolernc. ....  1.125000
   Auto Start start iteration           ....    20
   Auto Start num. interpolation iter.  ....    10
   Max. Number of Micro iterations      ....    16
   Max. Number of Macro iterations      .... Maxiter - #DIIS iter
   Number of Davidson start vectors     ....     2
   Converg. threshold I  (grad. norm)   ....   1.000e-05
   Converg. threshold II (energy diff.) ....   1.000e-08
   Grad. Scal. Fac. for Micro threshold ....   0.100
   Minimum threshold for Micro iter.    ....   0.010
   NR start threshold (gradient norm)   ....   0.001
   Initial trust radius                 ....   0.400
   Minimum AH scaling param. (alpha)    ....   1.000
   Maximum AH scaling param. (alpha)    .... 1000.000
   Orbital update algorithm             .... Taylor
   White noise on init. David. guess    .... on
   Maximum white noise                  ....   0.010
   Quad. conv. algorithm                .... NR
 SOSCF                  CNVSOSCF        .... off
 Level Shifting         CNVShift        .... on
   Level shift para.    LevelShift      ....    0.2500
   Turn off err/grad.   ShiftErr        ....    0.0010
 Zerner damping         CNVZerner       .... off
 Static damping         CNVDamp         .... on
   Fraction old density DampFac         ....    0.7000
   Max. Damping (<1)    DampMax         ....    0.9800
   Min. Damping (>=0)   DampMin         ....    0.0000
   Turn off err/grad.   DampErr         ....    0.1000
 Fernandez-Rico         CNVRico         .... off

SCF Procedure:
 Maximum # iterations   MaxIter         ....   250
 SCF integral mode      SCFMode         .... Direct
   Integral package                     .... SHARK and LIBINT hybrid scheme
 Reset frequency        DirectResetFreq ....    20
 Integral Threshold     Thresh          ....  2.500e-11 Eh
 Primitive CutOff       TCut            ....  2.500e-12 Eh

Convergence Tolerance:
 Convergence Check Mode ConvCheckMode   .... Total+1el-Energy
 Convergence forced     ConvForced      .... 0
 Energy Change          TolE            ....  1.000e-08 Eh
 1-El. energy change                    ....  1.000e-05 Eh
 DIIS Error             TolErr          ....  5.000e-07


Diagonalization of the overlap matrix:
Smallest eigenvalue                        ... 9.495e-04
Time for diagonalization                   ...    0.003 sec
Threshold for overlap eigenvalues          ... 1.000e-08
Number of eigenvalues below threshold      ... 0
Time for construction of square roots      ...    0.001 sec
Total time needed                          ...    0.004 sec

Time for model grid setup =    0.121 sec

------------------------------
INITIAL GUESS: MODEL POTENTIAL
------------------------------
Loading Hartree-Fock densities                     ... done
Calculating cut-offs                               ... done
Initializing the effective Hamiltonian             ... done
Setting up the integral package (SHARK)            ... done
Starting the Coulomb interaction                   ... done (   0.1 sec)
Reading the grid                                   ... done
Mapping shells                                     ... done
Starting the XC term evaluation                    ... done (   0.1 sec)
  promolecular density results
     # of electrons  =     52.996352398
     EX              =    -43.848029973
     EC              =     -1.755331613
     EX+EC           =    -45.603361586
Transforming the Hamiltonian                       ... done (   0.0 sec)
Diagonalizing the Hamiltonian                      ... done (   0.0 sec)
Back transforming the eigenvectors                 ... done (   0.0 sec)
Now organizing SCF variables                       ... done
                      ------------------
                      INITIAL GUESS DONE (   0.3 sec)
                      ------------------
-------------------
DFT GRID GENERATION
-------------------

General Integration Accuracy     IntAcc      ... 4.388
Radial Grid Type                 RadialGrid  ... OptM3 with GC (2021)
Angular Grid (max. ang.)         AngularGrid ... 4 (Lebedev-302)
Angular grid pruning method      GridPruning ... 4 (adaptive)
Weight generation scheme         WeightScheme... Becke
Basis function cutoff            BFCut       ... 1.0000e-11
Integration weight cutoff        WCut        ... 1.0000e-14
Angular grids for H and He will be reduced by one unit
Partially contracted basis set               ... off
Rotationally invariant grid construction     ... off

Total number of grid points                  ...    64860
Total number of batches                      ...     1021
Average number of points per batch           ...       63
Average number of grid points per atom       ...     4633
Time for grid setup =    0.492 sec

--------------------
COSX GRID GENERATION
--------------------

GRIDX 1
-------
General Integration Accuracy     IntAcc      ... 3.816
Radial Grid Type                 RadialGrid  ... OptM3 with GC (2021)
Angular Grid (max. ang.)         AngularGrid ... 1 (Lebedev-50)
Angular grid pruning method      GridPruning ... 4 (adaptive)
Weight generation scheme         WeightScheme... Becke
Basis function cutoff            BFCut       ... 1.0000e-11
Integration weight cutoff        WCut        ... 1.0000e-14
Angular grids for H and He will be reduced by one unit
Partially contracted basis set               ... on
Rotationally invariant grid construction     ... off

Total number of grid points                  ...     8293
Total number of batches                      ...      136
Average number of points per batch           ...       60
Average number of grid points per atom       ...      592
UseSFitting                                  ... on

GRIDX 2
-------
General Integration Accuracy     IntAcc      ... 4.020
Radial Grid Type                 RadialGrid  ... OptM3 with GC (2021)
Angular Grid (max. ang.)         AngularGrid ... 2 (Lebedev-110)
Angular grid pruning method      GridPruning ... 4 (adaptive)
Weight generation scheme         WeightScheme... Becke
Basis function cutoff            BFCut       ... 1.0000e-11
Integration weight cutoff        WCut        ... 1.0000e-14
Angular grids for H and He will be reduced by one unit
Partially contracted basis set               ... on
Rotationally invariant grid construction     ... off

Total number of grid points                  ...    18028
Total number of batches                      ...      287
Average number of points per batch           ...       62
Average number of grid points per atom       ...     1288
UseSFitting                                  ... on

GRIDX 3
-------
General Integration Accuracy     IntAcc      ... 4.338
Radial Grid Type                 RadialGrid  ... OptM3 with GC (2021)
Angular Grid (max. ang.)         AngularGrid ... 3 (Lebedev-194)
Angular grid pruning method      GridPruning ... 4 (adaptive)
Weight generation scheme         WeightScheme... Becke
Basis function cutoff            BFCut       ... 1.0000e-11
Integration weight cutoff        WCut        ... 1.0000e-14
Angular grids for H and He will be reduced by one unit
Partially contracted basis set               ... on
Rotationally invariant grid construction     ... off

Total number of grid points                  ...    39621
Total number of batches                      ...      624
Average number of points per batch           ...       63
Average number of grid points per atom       ...     2830
UseSFitting                                  ... on

Time for X-Grid setup             =    0.567 sec

--------------
SCF ITERATIONS
--------------
ITER       Energy         Delta-E        Max-DP      RMS-DP      [F,P]     Damp
               ***  Starting incremental Fock matrix formation  ***
  0   -344.2439409699   0.000000000000 0.03076660  0.00103917  0.0815864 0.7000
  1   -344.2952637077  -0.051322737822 0.01962234  0.00073338  0.0395518 0.7000
                               ***Turning on DIIS***
  2   -344.3185540227  -0.023290314987 0.03122036  0.00132838  0.0167729 0.0000
  3   -344.3551203482  -0.036566325565 0.01420650  0.00056136  0.0191516 0.0000
  4   -344.3630474892  -0.007927140958 0.00530619  0.00015715  0.0038585 0.0000
  5   -344.3635459790  -0.000498489780 0.00312533  0.00009846  0.0030375 0.0000
  6   -344.3637779767  -0.000231997713 0.00334464  0.00008172  0.0019266 0.0000
  7   -344.3639366563  -0.000158679661 0.00264095  0.00006182  0.0012278 0.0000
  8   -344.3640013119  -0.000064655569 0.00219295  0.00005961  0.0008239 0.0000
               *** Restarting incremental Fock matrix formation ***
                                   *** Resetting DIIS ***
  9   -344.3639786725   0.000022639391 0.00087253  0.00002094  0.0003001 0.0000
 10   -344.3639782574   0.000000415164 0.00042147  0.00001165  0.0004170 0.0000
 11   -344.3639815395  -0.000003282109 0.00019780  0.00000538  0.0001075 0.0000
 12   -344.3639818341  -0.000000294613 0.00015495  0.00000331  0.0001367 0.0000
 13   -344.3639819791  -0.000000145006 0.00010873  0.00000215  0.0000890 0.0000
 14   -344.3639820391  -0.000000059983 0.00005904  0.00000110  0.0000409 0.0000
 15   -344.3639820537  -0.000000014680 0.00003639  0.00000069  0.0000158 0.0000
 16   -344.3639820620  -0.000000008297 0.00002895  0.00000053  0.0000087 0.0000
 17   -344.3639820633  -0.000000001209 0.00001727  0.00000032  0.0000047 0.0000
 18   -344.3639820662  -0.000000002935 0.00000889  0.00000014  0.0000027 0.0000
 19   -344.3639820705  -0.000000004314 0.00000288  0.00000005  0.0000021 0.0000
                 **** Energy Check signals convergence ****

               *****************************************************
               *                     SUCCESS                       *
               *           SCF CONVERGED AFTER  20 CYCLES          *
               *****************************************************

Old exchange energy                            =    -11.164240539 Eh
New exchange energy                            =    -11.164269074 Eh
Exchange energy change after final integration =     -0.000028535 Eh
Total energy after final integration           =   -344.364010600 Eh
Final COS-X integration done in                =     5.289 sec

----------------
TOTAL SCF ENERGY
----------------

Total Energy       :         -344.36401060 Eh           -9370.62112 eV

Components:
Nuclear Repulsion  :          302.52585332 Eh            8232.14698 eV
Electronic Energy  :         -646.88986392 Eh          -17602.76810 eV
One Electron Energy:        -1068.48173694 Eh          -29074.86620 eV
Two Electron Energy:          421.59187303 Eh           11472.09810 eV
Max COSX asymmetry :            0.00000114 Eh               0.00003 eV

Virial components:
Potential Energy   :         -685.73384314 Eh          -18659.76652 eV
Kinetic Energy     :          341.36983254 Eh            9289.14539 eV
Virial Ratio       :            2.00877107


DFT components:
N(Alpha)           :       27.000016472535 electrons
N(Beta)            :       26.000014561645 electrons
N(Total)           :       53.000031034179 electrons
E(X)               :      -33.437112284756 Eh       
E(C)               :       -1.767796142352 Eh       
E(XC)              :      -35.204908427109 Eh       
DFET-embed. en.    :        0.000000000000 Eh       

---------------
SCF CONVERGENCE
---------------

  Last Energy change         ...    5.2804e-09  Tolerance :   1.0000e-08
  Last MAX-Density change    ...    0.0000e+00  Tolerance :   1.0000e-07
  Last RMS-Density change    ...    0.0000e+00  Tolerance :   5.0000e-09
  Last DIIS Error            ...    7.1227e-07  Tolerance :   5.0000e-07

             **** THE GBW FILE WAS UPDATED (5_2_orca.gbw) ****
             **** DENSITY 5_2_orca.scfp WAS UPDATED ****
             **** ENERGY FILE WAS UPDATED (5_2_orca.en.tmp) ****
----------------------
UHF SPIN CONTAMINATION
----------------------

Warning: in a DFT calculation there is little theoretical justification to 
         calculate <S**2> as in Hartree-Fock theory. We will do it anyways
         but you should keep in mind that the values have only limited relevance

Expectation value of <S**2>     :     0.790368
Ideal value S*(S+1) for S=0.5   :     0.750000
Deviation                       :     0.040368

             **** THE GBW FILE WAS UPDATED (5_2_orca.gbw) ****
             **** DENSITY 5_2_orca.scfp WAS UPDATED ****
----------------
ORBITAL ENERGIES
----------------
                 SPIN UP ORBITALS
  NO   OCC          E(Eh)            E(eV) 
   0   1.0000     -19.257197      -524.0150 
   1   1.0000     -19.243454      -523.6410 
   2   1.0000     -10.289232      -279.9842 
   3   1.0000     -10.249394      -278.9002 
   4   1.0000     -10.246738      -278.8279 
   5   1.0000     -10.240206      -278.6502 
   6   1.0000     -10.235457      -278.5209 
   7   1.0000      -1.084663       -29.5152 
   8   1.0000      -0.946635       -25.7592 
   9   1.0000      -0.852076       -23.1862 
  10   1.0000      -0.733727       -19.9657 
  11   1.0000      -0.707125       -19.2418 
  12   1.0000      -0.580958       -15.8087 
  13   1.0000      -0.558060       -15.1856 
  14   1.0000      -0.541937       -14.7469 
  15   1.0000      -0.495525       -13.4839 
  16   1.0000      -0.491453       -13.3731 
  17   1.0000      -0.441635       -12.0175 
  18   1.0000      -0.408644       -11.1198 
  19   1.0000      -0.401452       -10.9241 
  20   1.0000      -0.394341       -10.7306 
  21   1.0000      -0.371291       -10.1033 
  22   1.0000      -0.352555        -9.5935 
  23   1.0000      -0.347597        -9.4586 
  24   1.0000      -0.318398        -8.6640 
  25   1.0000      -0.258456        -7.0329 
  26   1.0000      -0.204192        -5.5563 
  27   0.0000      -0.008652        -0.2354 
  28   0.0000       0.041138         1.1194 
  29   0.0000       0.082087         2.2337 
  30   0.0000       0.095627         2.6021 
  31   0.0000       0.117051         3.1851 
  32   0.0000       0.126784         3.4500 
  33   0.0000       0.137447         3.7401 
  34   0.0000       0.143212         3.8970 
  35   0.0000       0.152203         4.1417 
  36   0.0000       0.196209         5.3391 
  37   0.0000       0.210914         5.7393 
  38   0.0000       0.216033         5.8786 
  39   0.0000       0.274845         7.4789 
  40   0.0000       0.339292         9.2326 
  41   0.0000       0.380209        10.3460 
  42   0.0000       0.397052        10.8043 
  43   0.0000       0.438110        11.9216 
  44   0.0000       0.467601        12.7241 
  45   0.0000       0.485231        13.2038 
  46   0.0000       0.506861        13.7924 
  47   0.0000       0.521082        14.1794 
  48   0.0000       0.547356        14.8943 
  49   0.0000       0.565190        15.3796 
  50   0.0000       0.593118        16.1396 
  51   0.0000       0.607162        16.5217 
  52   0.0000       0.622769        16.9464 
  53   0.0000       0.632167        17.2021 
  54   0.0000       0.637943        17.3593 
  55   0.0000       0.661055        17.9882 
  56   0.0000       0.675321        18.3764 
  57   0.0000       0.691783        18.8244 
  58   0.0000       0.703515        19.1436 
  59   0.0000       0.712018        19.3750 
  60   0.0000       0.731106        19.8944 
  61   0.0000       0.740616        20.1532 
  62   0.0000       0.791253        21.5311 
  63   0.0000       0.796257        21.6673 
  64   0.0000       0.822224        22.3739 
  65   0.0000       0.868722        23.6391 
  66   0.0000       0.936155        25.4741 
  67   0.0000       0.978610        26.6293 
  68   0.0000       1.015687        27.6383 
  69   0.0000       1.036861        28.2144 
  70   0.0000       1.054999        28.7080 
  71   0.0000       1.105900        30.0931 
  72   0.0000       1.143715        31.1221 
  73   0.0000       1.188746        32.3474 
  74   0.0000       1.222657        33.2702 
  75   0.0000       1.260864        34.3099 
  76   0.0000       1.295948        35.2645 
  77   0.0000       1.326382        36.0927 
  78   0.0000       1.395863        37.9834 
  79   0.0000       1.448897        39.4265 
  80   0.0000       1.471592        40.0441 
  81   0.0000       1.557087        42.3705 
  82   0.0000       1.583009        43.0759 
  83   0.0000       1.606444        43.7136 
  84   0.0000       1.645725        44.7825 
  85   0.0000       1.663786        45.2739 
  86   0.0000       1.672398        45.5083 
  87   0.0000       1.682009        45.7698 
  88   0.0000       1.703022        46.3416 
  89   0.0000       1.758519        47.8517 
  90   0.0000       1.788422        48.6654 
  91   0.0000       1.807813        49.1931 
  92   0.0000       1.853423        50.4342 
  93   0.0000       1.854857        50.4732 
  94   0.0000       1.879059        51.1318 
  95   0.0000       1.891131        51.4603 
  96   0.0000       1.918460        52.2039 
  97   0.0000       1.961598        53.3778 
  98   0.0000       1.978394        53.8348 
  99   0.0000       2.031733        55.2863 
 100   0.0000       2.038934        55.4822 
 101   0.0000       2.058254        56.0079 
 102   0.0000       2.096071        57.0370 
 103   0.0000       2.121154        57.7195 
 104   0.0000       2.206673        60.0466 
 105   0.0000       2.224552        60.5331 
 106   0.0000       2.269668        61.7608 
 107   0.0000       2.296378        62.4876 
 108   0.0000       2.364520        64.3419 
 109   0.0000       2.408580        65.5408 
 110   0.0000       2.439541        66.3833 
 111   0.0000       2.459256        66.9198 
 112   0.0000       2.476433        67.3872 
 113   0.0000       2.494476        67.8781 
 114   0.0000       2.542281        69.1790 
 115   0.0000       2.633778        71.6687 
 116   0.0000       2.681339        72.9629 
 117   0.0000       2.732364        74.3514 
 118   0.0000       2.753759        74.9336 
 119   0.0000       2.789496        75.9061 
 120   0.0000       2.803126        76.2769 
 121   0.0000       2.853350        77.6436 
 122   0.0000       2.894681        78.7683 
 123   0.0000       2.927525        79.6620 
 124   0.0000       2.984875        81.2226 
 125   0.0000       3.059491        83.2530 
 126   0.0000       3.085244        83.9537 
 127   0.0000       3.122105        84.9568 
 128   0.0000       3.125219        85.0415 
 129   0.0000       3.353219        91.2457 
 130   0.0000       3.429225        93.3139 
 131   0.0000       3.533989        96.1647 
 132   0.0000       3.797392       103.3323 

                 SPIN DOWN ORBITALS
  NO   OCC          E(Eh)            E(eV) 
   0   1.0000     -19.256430      -523.9941 
   1   1.0000     -19.241627      -523.5913 
   2   1.0000     -10.289630      -279.9951 
   3   1.0000     -10.244416      -278.7647 
   4   1.0000     -10.239751      -278.6378 
   5   1.0000     -10.236427      -278.5473 
   6   1.0000     -10.235999      -278.5357 
   7   1.0000      -1.081286       -29.4233 
   8   1.0000      -0.941352       -25.6155 
   9   1.0000      -0.843397       -22.9500 
  10   1.0000      -0.727984       -19.8095 
  11   1.0000      -0.692491       -18.8436 
  12   1.0000      -0.573454       -15.6045 
  13   1.0000      -0.553682       -15.0665 
  14   1.0000      -0.534674       -14.5492 
  15   1.0000      -0.490584       -13.3495 
  16   1.0000      -0.487577       -13.2676 
  17   1.0000      -0.436015       -11.8646 
  18   1.0000      -0.404940       -11.0190 
  19   1.0000      -0.397076       -10.8050 
  20   1.0000      -0.389936       -10.6107 
  21   1.0000      -0.366949        -9.9852 
  22   1.0000      -0.347927        -9.4676 
  23   1.0000      -0.344702        -9.3798 
  24   1.0000      -0.294891        -8.0244 
  25   1.0000      -0.254955        -6.9377 
  26   0.0000      -0.072461        -1.9718 
  27   0.0000       0.003651         0.0993 
  28   0.0000       0.065601         1.7851 
  29   0.0000       0.084926         2.3110 
  30   0.0000       0.098152         2.6709 
  31   0.0000       0.119456         3.2506 
  32   0.0000       0.129607         3.5268 
  33   0.0000       0.140953         3.8355 
  34   0.0000       0.146806         3.9948 
  35   0.0000       0.156416         4.2563 
  36   0.0000       0.200600         5.4586 
  37   0.0000       0.215079         5.8526 
  38   0.0000       0.219230         5.9656 
  39   0.0000       0.284697         7.7470 
  40   0.0000       0.345199         9.3933 
  41   0.0000       0.386801        10.5254 
  42   0.0000       0.398627        10.8472 
  43   0.0000       0.450589        12.2612 
  44   0.0000       0.474334        12.9073 
  45   0.0000       0.494840        13.4653 
  46   0.0000       0.519483        14.1359 
  47   0.0000       0.531743        14.4695 
  48   0.0000       0.550779        14.9874 
  49   0.0000       0.594525        16.1779 
  50   0.0000       0.599819        16.3219 
  51   0.0000       0.609755        16.5923 
  52   0.0000       0.630013        17.1435 
  53   0.0000       0.639774        17.4091 
  54   0.0000       0.648976        17.6595 
  55   0.0000       0.671659        18.2768 
  56   0.0000       0.678466        18.4620 
  57   0.0000       0.693044        18.8587 
  58   0.0000       0.707982        19.2652 
  59   0.0000       0.715573        19.4717 
  60   0.0000       0.735988        20.0273 
  61   0.0000       0.743944        20.2438 
  62   0.0000       0.797571        21.7030 
  63   0.0000       0.800776        21.7902 
  64   0.0000       0.827279        22.5114 
  65   0.0000       0.871719        23.7207 
  66   0.0000       0.939290        25.5594 
  67   0.0000       0.984470        26.7888 
  68   0.0000       1.020256        27.7626 
  69   0.0000       1.043934        28.4069 
  70   0.0000       1.059801        28.8386 
  71   0.0000       1.108148        30.1543 
  72   0.0000       1.146690        31.2030 
  73   0.0000       1.191228        32.4150 
  74   0.0000       1.228423        33.4271 
  75   0.0000       1.268584        34.5199 
  76   0.0000       1.301765        35.4228 
  77   0.0000       1.331068        36.2202 
  78   0.0000       1.400480        38.1090 
  79   0.0000       1.449509        39.4431 
  80   0.0000       1.475247        40.1435 
  81   0.0000       1.566585        42.6289 
  82   0.0000       1.587663        43.2025 
  83   0.0000       1.609826        43.8056 
  84   0.0000       1.647614        44.8339 
  85   0.0000       1.671061        45.4719 
  86   0.0000       1.677807        45.6554 
  87   0.0000       1.684089        45.8264 
  88   0.0000       1.706711        46.4420 
  89   0.0000       1.762736        47.9665 
  90   0.0000       1.792288        48.7706 
  91   0.0000       1.812559        49.3222 
  92   0.0000       1.859395        50.5967 
  93   0.0000       1.865099        50.7519 
  94   0.0000       1.885986        51.3203 
  95   0.0000       1.899014        51.6748 
  96   0.0000       1.929899        52.5152 
  97   0.0000       1.970447        53.6186 
  98   0.0000       1.988082        54.0985 
  99   0.0000       2.034835        55.3707 
 100   0.0000       2.050032        55.7842 
 101   0.0000       2.064885        56.1884 
 102   0.0000       2.097343        57.0716 
 103   0.0000       2.124756        57.8175 
 104   0.0000       2.211053        60.1658 
 105   0.0000       2.232154        60.7400 
 106   0.0000       2.276085        61.9354 
 107   0.0000       2.311638        62.9029 
 108   0.0000       2.379865        64.7594 
 109   0.0000       2.417045        65.7711 
 110   0.0000       2.448531        66.6279 
 111   0.0000       2.464147        67.0529 
 112   0.0000       2.485856        67.6436 
 113   0.0000       2.499679        68.0197 
 114   0.0000       2.550496        69.4025 
 115   0.0000       2.641317        71.8739 
 116   0.0000       2.683576        73.0238 
 117   0.0000       2.735384        74.4336 
 118   0.0000       2.756876        75.0184 
 119   0.0000       2.792488        75.9875 
 120   0.0000       2.806329        76.3641 
 121   0.0000       2.856913        77.7406 
 122   0.0000       2.897835        78.8541 
 123   0.0000       2.929922        79.7272 
 124   0.0000       2.985730        81.2458 
 125   0.0000       3.061925        83.3192 
 126   0.0000       3.088430        84.0405 
 127   0.0000       3.125345        85.0449 
 128   0.0000       3.128232        85.1235 
 129   0.0000       3.354195        91.2723 
 130   0.0000       3.432731        93.4094 
 131   0.0000       3.535098        96.1949 
 132   0.0000       3.799603       103.3925 

                    ********************************
                    * MULLIKEN POPULATION ANALYSIS *
                    ********************************

--------------------------------------------
MULLIKEN ATOMIC CHARGES AND SPIN POPULATIONS
--------------------------------------------
   0 O :   -0.202120    0.061035
   1 O :   -0.277710    0.001422
   2 C :    0.049149   -0.042465
   3 C :   -0.027600    0.673513
   4 C :    0.001737   -0.324759
   5 C :   -0.076271    0.709292
   6 C :    0.064807   -0.054980
   7 H :    0.190628   -0.000912
   8 H :    0.044080    0.001576
   9 H :    0.045418   -0.032474
  10 H :    0.031098    0.011977
  11 H :    0.025353   -0.034619
  12 H :    0.063467    0.026697
  13 H :    0.067965    0.004696
Sum of atomic charges         :    0.0000000
Sum of atomic spin populations:    1.0000000

-----------------------------------------------------
MULLIKEN REDUCED ORBITAL CHARGES AND SPIN POPULATIONS
-----------------------------------------------------
CHARGE
  0 O s       :     3.809737  s :     3.809737
      pz      :     1.362086  p :     4.379559
      px      :     1.440279
      py      :     1.577195
      dz2     :     0.005771  d :     0.012824
      dxz     :     0.001107
      dyz     :     0.001113
      dx2y2   :     0.001439
      dxy     :     0.003394
  1 O s       :     3.889305  s :     3.889305
      pz      :     1.460752  p :     4.371374
      px      :     1.391662
      py      :     1.518961
      dz2     :     0.005691  d :     0.017031
      dxz     :     0.002296
      dyz     :     0.002673
      dx2y2   :     0.001809
      dxy     :     0.004562
  2 C s       :     3.160120  s :     3.160120
      pz      :     0.755007  p :     2.720784
      px      :     0.994603
      py      :     0.971174
      dz2     :     0.017900  d :     0.069947
      dxz     :     0.014558
      dyz     :     0.017723
      dx2y2   :     0.007626
      dxy     :     0.012141
  3 C s       :     3.214389  s :     3.214389
      pz      :     0.997991  p :     2.780995
      px      :     0.922403
      py      :     0.860601
      dz2     :     0.002545  d :     0.032216
      dxz     :     0.004550
      dyz     :     0.005362
      dx2y2   :     0.009474
      dxy     :     0.010285
  4 C s       :     3.169003  s :     3.169003
      pz      :     0.958130  p :     2.791988
      px      :     0.880432
      py      :     0.953426
      dz2     :     0.003692  d :     0.037272
      dxz     :     0.005659
      dyz     :     0.007123
      dx2y2   :     0.010661
      dxy     :     0.010137
  5 C s       :     3.229800  s :     3.229800
      pz      :     0.941014  p :     2.812570
      px      :     0.964961
      py      :     0.906595
      dz2     :     0.005281  d :     0.033900
      dxz     :     0.004546
      dyz     :     0.005318
      dx2y2   :     0.008477
      dxy     :     0.010279
  6 C s       :     2.997652  s :     2.997652
      pz      :     0.952556  p :     2.903570
      px      :     0.939374
      py      :     1.011640
      dz2     :     0.008681  d :     0.033971
      dxz     :     0.006202
      dyz     :     0.004539
      dx2y2   :     0.006329
      dxy     :     0.008220
  7 H s       :     0.742947  s :     0.742947
      pz      :     0.036129  p :     0.066425
      px      :     0.013841
      py      :     0.016456
  8 H s       :     0.935278  s :     0.935278
      pz      :     0.003917  p :     0.020642
      px      :     0.011156
      py      :     0.005568
  9 H s       :     0.930587  s :     0.930587
      pz      :     0.006700  p :     0.023995
      px      :     0.003202
      py      :     0.014094
 10 H s       :     0.945459  s :     0.945459
      pz      :     0.006684  p :     0.023443
      px      :     0.012960
      py      :     0.003800
 11 H s       :     0.949748  s :     0.949748
      pz      :     0.005137  p :     0.024900
      px      :     0.007182
      py      :     0.012581
 12 H s       :     0.913655  s :     0.913655
      pz      :     0.013803  p :     0.022878
      px      :     0.004756
      py      :     0.004319
 13 H s       :     0.908408  s :     0.908408
      pz      :     0.004594  p :     0.023627
      px      :     0.008549
      py      :     0.010484

SPIN
  0 O s       :     0.000305  s :     0.000305
      pz      :     0.001335  p :     0.060743
      px      :     0.021803
      py      :     0.037606
      dz2     :    -0.000018  d :    -0.000013
      dxz     :     0.000027
      dyz     :     0.000024
      dx2y2   :     0.000007
      dxy     :    -0.000054
  1 O s       :     0.005125  s :     0.005125
      pz      :     0.013219  p :    -0.004389
      px      :     0.004117
      py      :    -0.021725
      dz2     :     0.000163  d :     0.000686
      dxz     :     0.000020
      dyz     :     0.000007
      dx2y2   :    -0.000004
      dxy     :     0.000501
  2 C s       :    -0.012818  s :    -0.012818
      pz      :    -0.009503  p :    -0.033258
      px      :    -0.016981
      py      :    -0.006773
      dz2     :    -0.000229  d :     0.003611
      dxz     :     0.002128
      dyz     :     0.001657
      dx2y2   :     0.000050
      dxy     :     0.000006
  3 C s       :     0.092329  s :     0.092329
      pz      :     0.455372  p :     0.583959
      px      :     0.054697
      py      :     0.073890
      dz2     :    -0.000928  d :    -0.002775
      dxz     :    -0.000479
      dyz     :    -0.000957
      dx2y2   :    -0.000246
      dxy     :    -0.000166
  4 C s       :    -0.058112  s :    -0.058112
      pz      :    -0.170981  p :    -0.274910
      px      :    -0.046663
      py      :    -0.057267
      dz2     :     0.000958  d :     0.008263
      dxz     :     0.001432
      dyz     :     0.004172
      dx2y2   :     0.000755
      dxy     :     0.000946
  5 C s       :     0.093457  s :     0.093457
      pz      :     0.419745  p :     0.618318
      px      :     0.142569
      py      :     0.056005
      dz2     :    -0.000721  d :    -0.002483
      dxz     :    -0.000690
      dyz     :    -0.000646
      dx2y2   :    -0.000261
      dxy     :    -0.000164
  6 C s       :    -0.017064  s :    -0.017064
      pz      :    -0.012811  p :    -0.041285
      px      :    -0.024066
      py      :    -0.004409
      dz2     :     0.002068  d :     0.003370
      dxz     :     0.000557
      dyz     :     0.000342
      dx2y2   :     0.000299
      dxy     :     0.000103
  7 H s       :    -0.001513  s :    -0.001513
      pz      :     0.000027  p :     0.000601
      px      :     0.000215
      py      :     0.000360
  8 H s       :     0.001637  s :     0.001637
      pz      :    -0.000028  p :    -0.000061
      px      :    -0.000054
      py      :     0.000021
  9 H s       :    -0.035849  s :    -0.035849
      pz      :     0.002609  p :     0.003375
      px      :     0.000077
      py      :     0.000689
 10 H s       :     0.013116  s :     0.013116
      pz      :    -0.000812  p :    -0.001139
      px      :    -0.000217
      py      :    -0.000111
 11 H s       :    -0.038658  s :    -0.038658
      pz      :     0.002739  p :     0.004039
      px      :     0.000920
      py      :     0.000380
 12 H s       :     0.026842  s :     0.026842
      pz      :    -0.000245  p :    -0.000144
      px      :     0.000074
      py      :     0.000026
 13 H s       :     0.004727  s :     0.004727
      pz      :    -0.000060  p :    -0.000031
      px      :    -0.000044
      py      :     0.000073


                     *******************************
                     * LOEWDIN POPULATION ANALYSIS *
                     *******************************

-------------------------------------------
LOEWDIN ATOMIC CHARGES AND SPIN POPULATIONS
-------------------------------------------
   0 O :   -0.105783    0.054897
   1 O :   -0.106129    0.013109
   2 C :    0.057626    0.001738
   3 C :   -0.027040    0.525056
   4 C :   -0.034638   -0.177866
   5 C :    0.009164    0.562444
   6 C :   -0.052613   -0.007459
   7 H :    0.073804    0.001139
   8 H :    0.020733    0.001122
   9 H :    0.029900   -0.001234
  10 H :    0.033548    0.001125
  11 H :    0.019785    0.000184
  12 H :    0.042085    0.021327
  13 H :    0.039560    0.004420

----------------------------------------------------
LOEWDIN REDUCED ORBITAL CHARGES AND SPIN POPULATIONS
----------------------------------------------------
CHARGE
  0 O s       :     3.602081  s :     3.602081
      pz      :     1.455836  p :     4.481714
      px      :     1.451370
      py      :     1.574508
      dz2     :     0.011499  d :     0.021987
      dxz     :     0.001077
      dyz     :     0.001477
      dx2y2   :     0.002503
      dxy     :     0.005432
  1 O s       :     3.639873  s :     3.639873
      pz      :     1.509023  p :     4.438011
      px      :     1.399191
      py      :     1.529798
      dz2     :     0.009183  d :     0.028245
      dxz     :     0.003602
      dyz     :     0.004492
      dx2y2   :     0.003197
      dxy     :     0.007771
  2 C s       :     2.868273  s :     2.868273
      pz      :     0.865526  p :     2.916116
      px      :     1.038015
      py      :     1.012575
      dz2     :     0.038623  d :     0.157984
      dxz     :     0.032119
      dyz     :     0.041732
      dx2y2   :     0.015295
      dxy     :     0.030215
  3 C s       :     2.902852  s :     2.902852
      pz      :     0.985341  p :     3.043541
      px      :     1.022173
      py      :     1.036026
      dz2     :     0.005849  d :     0.080648
      dxz     :     0.010496
      dyz     :     0.010406
      dx2y2   :     0.023806
      dxy     :     0.030091
  4 C s       :     2.871967  s :     2.871967
      pz      :     0.975694  p :     3.065459
      px      :     1.036175
      py      :     1.053589
      dz2     :     0.008106  d :     0.097213
      dxz     :     0.012672
      dyz     :     0.018192
      dx2y2   :     0.028851
      dxy     :     0.029392
  5 C s       :     2.891994  s :     2.891994
      pz      :     0.960078  p :     3.015837
      px      :     1.004796
      py      :     1.050963
      dz2     :     0.010536  d :     0.083005
      dxz     :     0.010402
      dyz     :     0.013038
      dx2y2   :     0.024267
      dxy     :     0.024762
  6 C s       :     2.848167  s :     2.848167
      pz      :     1.040759  p :     3.116498
      px      :     1.025780
      py      :     1.049959
      dz2     :     0.023064  d :     0.087948
      dxz     :     0.015619
      dyz     :     0.011632
      dx2y2   :     0.016800
      dxy     :     0.020834
  7 H s       :     0.747957  s :     0.747957
      pz      :     0.097440  p :     0.178240
      px      :     0.037396
      py      :     0.043404
  8 H s       :     0.912634  s :     0.912634
      pz      :     0.013899  p :     0.066633
      px      :     0.033413
      py      :     0.019320
  9 H s       :     0.896230  s :     0.896230
      pz      :     0.021456  p :     0.073870
      px      :     0.011763
      py      :     0.040651
 10 H s       :     0.898524  s :     0.898524
      pz      :     0.019254  p :     0.067929
      px      :     0.036431
      py      :     0.012244
 11 H s       :     0.903100  s :     0.903100
      pz      :     0.017312  p :     0.077115
      px      :     0.023939
      py      :     0.035864
 12 H s       :     0.890616  s :     0.890616
      pz      :     0.039944  p :     0.067300
      px      :     0.013644
      py      :     0.013712
 13 H s       :     0.890510  s :     0.890510
      pz      :     0.013092  p :     0.069931
      px      :     0.025063
      py      :     0.031776

SPIN
  0 O s       :     0.000704  s :     0.000704
      pz      :     0.000736  p :     0.054256
      px      :     0.019282
      py      :     0.034238
      dz2     :    -0.000040  d :    -0.000063
      dxz     :     0.000020
      dyz     :     0.000012
      dx2y2   :    -0.000010
      dxy     :    -0.000045
  1 O s       :     0.011931  s :     0.011931
      pz      :     0.011981  p :    -0.000160
      px      :     0.005604
      py      :    -0.017745
      dz2     :     0.000124  d :     0.001339
      dxz     :     0.000023
      dyz     :     0.000001
      dx2y2   :     0.000006
      dxy     :     0.001185
  2 C s       :     0.000435  s :     0.000435
      pz      :    -0.001614  p :    -0.007787
      px      :    -0.004418
      py      :    -0.001756
      dz2     :    -0.000090  d :     0.009090
      dxz     :     0.004904
      dyz     :     0.003663
      dx2y2   :     0.000166
      dxy     :     0.000447
  3 C s       :     0.021124  s :     0.021124
      pz      :     0.413045  p :     0.509261
      px      :     0.038994
      py      :     0.057223
      dz2     :    -0.000937  d :    -0.005330
      dxz     :    -0.001173
      dyz     :    -0.001339
      dx2y2   :    -0.001022
      dxy     :    -0.000860
  4 C s       :    -0.010769  s :    -0.010769
      pz      :    -0.131005  p :    -0.187578
      px      :    -0.027981
      py      :    -0.028592
      dz2     :     0.002077  d :     0.020481
      dxz     :     0.003325
      dyz     :     0.009844
      dx2y2   :     0.002297
      dxy     :     0.002938
  5 C s       :     0.021189  s :     0.021189
      pz      :     0.381501  p :     0.546467
      px      :     0.126391
      py      :     0.038575
      dz2     :    -0.001306  d :    -0.005212
      dxz     :    -0.000721
      dyz     :    -0.001475
      dx2y2   :    -0.000883
      dxy     :    -0.000827
  6 C s       :    -0.002582  s :    -0.002582
      pz      :    -0.003852  p :    -0.013442
      px      :    -0.008438
      py      :    -0.001152
      dz2     :     0.005168  d :     0.008565
      dxz     :     0.001369
      dyz     :     0.000844
      dx2y2   :     0.000933
      dxy     :     0.000252
  7 H s       :    -0.000986  s :    -0.000986
      pz      :     0.000191  p :     0.002125
      px      :     0.000727
      py      :     0.001207
  8 H s       :     0.001424  s :     0.001424
      pz      :    -0.000115  p :    -0.000302
      px      :    -0.000199
      py      :     0.000012
  9 H s       :    -0.016084  s :    -0.016084
      pz      :     0.010322  p :     0.014850
      px      :     0.000952
      py      :     0.003576
 10 H s       :     0.006170  s :     0.006170
      pz      :    -0.003171  p :    -0.005045
      px      :    -0.001205
      py      :    -0.000668
 11 H s       :    -0.016766  s :    -0.016766
      pz      :     0.010488  p :     0.016950
      px      :     0.004019
      py      :     0.002443
 12 H s       :     0.021917  s :     0.021917
      pz      :    -0.000464  p :    -0.000591
      px      :    -0.000102
      py      :    -0.000025
 13 H s       :     0.004604  s :     0.004604
      pz      :    -0.000183  p :    -0.000184
      px      :    -0.000086
      py      :     0.000085


                      *****************************
                      * MAYER POPULATION ANALYSIS *
                      *****************************

  NA   - Mulliken gross atomic population
  ZA   - Total nuclear charge
  QA   - Mulliken gross atomic charge
  VA   - Mayer's total valence
  BVA  - Mayer's bonded valence
  FA   - Mayer's free valence

  ATOM       NA         ZA         QA         VA         BVA        FA
  0 O      8.2021     8.0000    -0.2021     1.9933     1.9893     0.0040
  1 O      8.2777     8.0000    -0.2777     1.8927     1.8903     0.0023
  2 C      5.9509     6.0000     0.0491     3.9578     3.9562     0.0017
  3 C      6.0276     6.0000    -0.0276     3.8133     3.5153     0.2980
  4 C      5.9983     6.0000     0.0017     3.8564     3.8091     0.0473
  5 C      6.0763     6.0000    -0.0763     3.9119     3.5786     0.3334
  6 C      5.9352     6.0000     0.0648     3.8191     3.8174     0.0017
  7 H      0.8094     1.0000     0.1906     1.0015     1.0015     0.0000
  8 H      0.9559     1.0000     0.0441     0.9901     0.9901     0.0000
  9 H      0.9546     1.0000     0.0454     0.9928     0.9914     0.0013
 10 H      0.9689     1.0000     0.0311     0.9859     0.9857     0.0002
 11 H      0.9746     1.0000     0.0254     0.9923     0.9907     0.0015
 12 H      0.9365     1.0000     0.0635     0.9765     0.9757     0.0007
 13 H      0.9320     1.0000     0.0680     1.0080     1.0079     0.0000

  Mayer bond orders larger than 0.100000
B(  0-O ,  1-O ) :   0.8952 B(  0-O ,  7-H ) :   0.9724 B(  1-O ,  2-C ) :   0.8967 
B(  2-C ,  3-C ) :   0.9984 B(  2-C ,  6-C ) :   1.0206 B(  2-C ,  8-H ) :   0.9515 
B(  3-C ,  4-C ) :   1.3594 B(  3-C ,  9-H ) :   0.9931 B(  4-C ,  5-C ) :   1.4163 
B(  4-C , 10-H ) :   0.9915 B(  5-C ,  6-C ) :   0.9907 B(  5-C , 11-H ) :   0.9867 
B(  6-C , 12-H ) :   0.9286 B(  6-C , 13-H ) :   0.9305 


------------------
HIRSHFELD ANALYSIS
------------------

Total integrated alpha density =     27.000016473
Total integrated beta density  =     26.000014562

  ATOM     CHARGE      SPIN    
   0 O   -0.193938    0.053576
   1 O   -0.122560    0.022006
   2 C    0.059867    0.028518
   3 C   -0.030480    0.412334
   4 C   -0.042195   -0.068115
   5 C   -0.012009    0.440187
   6 C   -0.050240    0.027491
   7 H    0.166202    0.002076
   8 H    0.035964    0.002804
   9 H    0.042377    0.026554
  10 H    0.043434   -0.005505
  11 H    0.037069    0.030102
  12 H    0.033654    0.022434
  13 H    0.032823    0.005539

  TOTAL  -0.000031    1.000002

-------
TIMINGS
-------

Total SCF time: 0 days 0 hours 0 min 59 sec 

Total time                  ....      59.080 sec
Sum of individual times     ....      58.922 sec  ( 99.7%)

Fock matrix formation       ....      57.016 sec  ( 96.5%)
  Split-RI-J                ....       3.398 sec  (  6.0% of F)
  Chain of spheres X        ....      39.284 sec  ( 68.9% of F)
  XC integration            ....      14.342 sec  ( 25.2% of F)
    Basis function eval.    ....       4.184 sec  ( 29.2% of XC)
    Density eval.           ....       3.938 sec  ( 27.5% of XC)
    XC-Functional eval.     ....       1.435 sec  ( 10.0% of XC)
    XC-Potential eval.      ....       4.455 sec  ( 31.1% of XC)
Diagonalization             ....       0.092 sec  (  0.2%)
Density matrix formation    ....       0.008 sec  (  0.0%)
Population analysis         ....       0.384 sec  (  0.6%)
Initial guess               ....       0.218 sec  (  0.4%)
Orbital Transformation      ....       0.000 sec  (  0.0%)
Orbital Orthonormalization  ....       0.000 sec  (  0.0%)
DIIS solution               ....       0.023 sec  (  0.0%)
Grid generation             ....       1.180 sec  (  2.0%)

Maximum memory used throughout the entire SCF-calculation: 63.7 MB


-------------------------------------------------------------------------------
                          DFT DISPERSION CORRECTION                            
                                                                               
                              DFTD3 V3.1  Rev 1                                
                          USING Becke-Johnson damping                          
-------------------------------------------------------------------------------
The PBE0 functional is recognized
Active option DFTDOPT                   ...         4   

molecular C6(AA) [au] = 1771.177581 


            DFT-D V3
 parameters
 s6 scaling factor         :     1.0000 
 a1 scaling factor         :     0.4145 
 s8 scaling factor         :     1.2177 
 a2 scaling factor         :     4.8593 
 ad hoc parameters k1-k3   :    16.0000     1.3333    -4.0000 

 Edisp/kcal,au: -6.367336358153  -0.010146995292 
 E6   /kcal   :  -4.041235748 
 E8   /kcal   :  -2.326100610 
 % E8         :  36.531768998 

-------------------------   ----------------
Dispersion correction           -0.010146995
-------------------------   ----------------


-------------------------   --------------------
FINAL SINGLE POINT ENERGY      -344.374157595198
-------------------------   --------------------

------------------------------------------------------------------------------
                         ORCA SCF GRADIENT CALCULATION
------------------------------------------------------------------------------

 ... reading COSX grid (gridx3)
Gradient of the Kohn-Sham DFT energy:
Kohn-Sham wavefunction type      ... UKS
Hartree-Fock exchange scaling    ...    0.250
Number of operators              ...    2
Number of atoms                  ...   14
Basis set dimensions             ...  133
Integral neglect threshold       ... 2.5e-11
Integral primitive cutoff        ... 2.5e-12
SHARK Integral package           ... ON

Nuc. rep. gradient       (SHARK) ... done (  0.0 sec)
HCore & Overlap gradient (SHARK) ... done (  0.1 sec)
RI-J gradient            (SHARK) ... done (  0.6 sec)
COSX-gradient                    ... done (  6.9 sec)
Exchange-correlation gradient    ... done
Dispersion correction            ... done

------------------
CARTESIAN GRADIENT
------------------

   1   O   :   -0.029459325   -0.026520161   -0.001217982
   2   O   :    0.046012688    0.021859990    0.004440508
   3   C   :    0.005234597    0.003357503   -0.021158589
   4   C   :   -0.007152112   -0.000330672    0.006259062
   5   C   :   -0.001112356   -0.001602673    0.001050466
   6   C   :    0.009189123   -0.012195199    0.008072461
   7   C   :   -0.008618512    0.002834198   -0.005970257
   8   H   :   -0.000683095   -0.001002120    0.003828938
   9   H   :   -0.002973766    0.000708183    0.002349696
  10   H   :   -0.001315129    0.001896867    0.000930448
  11   H   :    0.000840170   -0.001224090    0.000535494
  12   H   :   -0.011549516    0.013279386    0.001372339
  13   H   :    0.004207378   -0.002316337   -0.001242423
  14   H   :   -0.002755580    0.001295535    0.000764844

Difference to translation invariance:
           :   -0.0001354338    0.0000404121    0.0000150055

Difference to rotation invariance:
           :    0.0005764536   -0.0000358227   -0.0003115801

Norm of the cartesian gradient     ...    0.0746401719
RMS gradient                       ...    0.0115172286
MAX gradient                       ...    0.0460126878

-------
TIMINGS
-------

Total SCF gradient time            ...       11.998 sec

One electron gradient       ....       0.099 sec  (  0.8%)
RI-J Coulomb gradient       ....       0.612 sec  (  5.1%)
COSX gradient               ....       6.949 sec  ( 57.9%)
XC gradient                 ....       4.018 sec  ( 33.5%)

Maximum memory used throughout the entire SCFGRAD-calculation: 50.5 MB

                            ***************************************
                            *     ORCA property calculations      *
                            ***************************************

                                    ---------------------
                                    Active property flags
                                    ---------------------
   (+) Dipole Moment


------------------------------------------------------------------------------
                       ORCA ELECTRIC PROPERTIES CALCULATION
------------------------------------------------------------------------------

Dipole Moment Calculation                       ... on
Quadrupole Moment Calculation                   ... off
Polarizability Calculation                      ... off
GBWName                                         ... 5_2_orca.gbw
Electron density                                ... 5_2_orca.scfp
The origin for moment calculation is the CENTER OF MASS  = (-0.321903,  0.015870  0.318800)

-------------
DIPOLE MOMENT
-------------
                                X             Y             Z
Electronic contribution:     -1.21697       0.41109       1.84308
Nuclear contribution   :      1.48359      -0.40793      -1.80781
                        -----------------------------------------
Total Dipole Moment    :      0.26663       0.00316       0.03527
                        -----------------------------------------
Magnitude (a.u.)       :      0.26897
Magnitude (Debye)      :      0.68366



--------------------
Rotational spectrum 
--------------------
 
Rotational constants in cm-1:     0.168413     0.077185     0.067520 
Rotational constants in MHz :  5048.889526  2313.942950  2024.196547 

 Dipole components along the rotational axes: 
x,y,z [a.u.] :    -0.232224     0.001081     0.135699 
x,y,z [Debye]:    -0.590267     0.002748     0.344918 

 

Timings for individual modules:

Sum of individual times         ...       71.303 sec (=   1.188 min)
GTO integral calculation        ...        0.168 sec (=   0.003 min)   0.2 %
SCF iterations                  ...       59.108 sec (=   0.985 min)  82.9 %
SCF Gradient evaluation         ...       12.028 sec (=   0.200 min)  16.9 %
                             ****ORCA TERMINATED NORMALLY****
TOTAL RUN TIME: 0 days 0 hours 1 minutes 11 seconds 459 msec
