
                                 *****************
                                 * O   R   C   A *
                                 *****************

                                            #,                                       
                                            ###                                      
                                            ####                                     
                                            #####                                    
                                            ######                                   
                                           ########,                                 
                                     ,,################,,,,,                         
                               ,,#################################,,                 
                          ,,##########################################,,             
                       ,#########################################, ''#####,          
                    ,#############################################,,   '####,        
                  ,##################################################,,,,####,       
                ,###########''''           ''''###############################       
              ,#####''   ,,,,##########,,,,          '''####'''          '####       
            ,##' ,,,,###########################,,,                        '##       
           ' ,,###''''                  '''############,,,                           
         ,,##''                                '''############,,,,        ,,,,,,###''
      ,#''                                            '''#######################'''  
     '                                                          ''''####''''         
             ,#######,   #######,   ,#######,      ##                                
            ,#'     '#,  ##    ##  ,#'     '#,    #''#        ######   ,####,        
            ##       ##  ##   ,#'  ##            #'  '#       #        #'  '#        
            ##       ##  #######   ##           ,######,      #####,   #    #        
            '#,     ,#'  ##    ##  '#,     ,#' ,#      #,         ##   #,  ,#        
             '#######'   ##     ##  '#######'  #'      '#     #####' # '####'        



                  #######################################################
                  #                        -***-                        #
                  #          Department of theory and spectroscopy      #
                  #    Directorship and core code : Frank Neese         #
                  #        Max Planck Institute fuer Kohlenforschung    #
                  #                Kaiser Wilhelm Platz 1               #
                  #                 D-45470 Muelheim/Ruhr               #
                  #                      Germany                        #
                  #                                                     #
                  #                  All rights reserved                #
                  #                        -***-                        #
                  #######################################################


                         Program Version 5.0.4 -  RELEASE  -


 With contributions from (in alphabetic order):
   Daniel Aravena         : Magnetic Suceptibility
   Michael Atanasov       : Ab Initio Ligand Field Theory (pilot matlab implementation)
   Alexander A. Auer      : GIAO ZORA, VPT2 properties, NMR spectrum
   Ute Becker             : Parallelization
   Giovanni Bistoni       : ED, misc. LED, open-shell LED, HFLD
   Martin Brehm           : Molecular dynamics
   Dmytro Bykov           : SCF Hessian
   Vijay G. Chilkuri      : MRCI spin determinant printing, contributions to CSF-ICE
   Dipayan Datta          : RHF DLPNO-CCSD density
   Achintya Kumar Dutta   : EOM-CC, STEOM-CC
   Dmitry Ganyushin       : Spin-Orbit,Spin-Spin,Magnetic field MRCI
   Miquel Garcia          : C-PCM and meta-GGA Hessian, CC/C-PCM, Gaussian charge scheme
   Yang Guo               : DLPNO-NEVPT2, F12-NEVPT2, CIM, IAO-localization
   Andreas Hansen         : Spin unrestricted coupled pair/coupled cluster methods
   Benjamin Helmich-Paris : MC-RPA, TRAH-SCF, COSX integrals
   Lee Huntington         : MR-EOM, pCC
   Robert Izsak           : Overlap fitted RIJCOSX, COSX-SCS-MP3, EOM
   Marcus Kettner         : VPT2
   Christian Kollmar      : KDIIS, OOCD, Brueckner-CCSD(T), CCSD density, CASPT2, CASPT2-K
   Simone Kossmann        : Meta GGA functionals, TD-DFT gradient, OOMP2, MP2 Hessian
   Martin Krupicka        : Initial AUTO-CI
   Lucas Lang             : DCDCAS
   Marvin Lechner         : AUTO-CI (C++ implementation), FIC-MRCC
   Dagmar Lenk            : GEPOL surface, SMD
   Dimitrios Liakos       : Extrapolation schemes; Compound Job, initial MDCI parallelization
   Dimitrios Manganas     : Further ROCIS development; embedding schemes
   Dimitrios Pantazis     : SARC Basis sets
   Anastasios Papadopoulos: AUTO-CI, single reference methods and gradients
   Taras Petrenko         : DFT Hessian,TD-DFT gradient, ASA, ECA, R-Raman, ABS, FL, XAS/XES, NRVS
   Peter Pinski           : DLPNO-MP2, DLPNO-MP2 Gradient
   Christoph Reimann      : Effective Core Potentials
   Marius Retegan         : Local ZFS, SOC
   Christoph Riplinger    : Optimizer, TS searches, QM/MM, DLPNO-CCSD(T), (RO)-DLPNO pert. Triples
   Tobias Risthaus        : Range-separated hybrids, TD-DFT gradient, RPA, STAB
   Michael Roemelt        : Original ROCIS implementation
   Masaaki Saitow         : Open-shell DLPNO-CCSD energy and density
   Barbara Sandhoefer     : DKH picture change effects
   Avijit Sen             : IP-ROCIS
   Kantharuban Sivalingam : CASSCF convergence, NEVPT2, FIC-MRCI
   Bernardo de Souza      : ESD, SOC TD-DFT
   Georgi Stoychev        : AutoAux, RI-MP2 NMR, DLPNO-MP2 response
   Willem Van den Heuvel  : Paramagnetic NMR
   Boris Wezisla          : Elementary symmetry handling
   Frank Wennmohs         : Technical directorship


 We gratefully acknowledge several colleagues who have allowed us to
 interface, adapt or use parts of their codes:
   Stefan Grimme, W. Hujo, H. Kruse, P. Pracht,  : VdW corrections, initial TS optimization,
                  C. Bannwarth, S. Ehlert          DFT functionals, gCP, sTDA/sTD-DF
   Ed Valeev, F. Pavosevic, A. Kumar             : LibInt (2-el integral package), F12 methods
   Garnet Chan, S. Sharma, J. Yang, R. Olivares  : DMRG
   Ulf Ekstrom                                   : XCFun DFT Library
   Mihaly Kallay                                 : mrcc  (arbitrary order and MRCC methods)
   Jiri Pittner, Ondrej Demel                    : Mk-CCSD
   Frank Weinhold                                : gennbo (NPA and NBO analysis)
   Christopher J. Cramer and Donald G. Truhlar   : smd solvation model
   Lars Goerigk                                  : TD-DFT with DH, B97 family of functionals
   V. Asgeirsson, H. Jonsson                     : NEB implementation
   FAccTs GmbH                                   : IRC, NEB, NEB-TS, DLPNO-Multilevel, CI-OPT
                                                   MM, QMMM, 2- and 3-layer-ONIOM, Crystal-QMMM,
                                                   LR-CPCM, SF, NACMEs, symmetry and pop. for TD-DFT,
                                                   nearIR, NL-DFT gradient (VV10), updates on ESD,
                                                   ML-optimized integration grids
   S Lehtola, MJT Oliveira, MAL Marques          : LibXC Library
   Liviu Ungur et al                             : ANISO software


 Your calculation uses the libint2 library for the computation of 2-el integrals
 For citations please refer to: http://libint.valeyev.net

 Your ORCA version has been built with support for libXC version: 5.1.0
 For citations please refer to: https://tddft.org/programs/libxc/

 This ORCA versions uses:
   CBLAS   interface :  Fast vector & matrix operations
   LAPACKE interface :  Fast linear algebra routines
   SCALAPACK package :  Parallel linear algebra routines
   Shared memory     :  Shared parallel matrices
   BLAS/LAPACK       :  OpenBLAS 0.3.15  USE64BITINT DYNAMIC_ARCH NO_AFFINITY SkylakeX SINGLE_THREADED
        Core in use  :  SkylakeX
   Copyright (c) 2011-2014, The OpenBLAS Project


Your calculation utilizes the atom-pairwise dispersion correction
with the Becke-Johnson damping scheme (D3BJ)
Cite in your paper:
S.Grimme, S.Ehrlich, L.Goerigk, J Comput Chem, (2011), 32, 1456–1465 
S.Grimme, J.Antony, S.Ehrlich and H.Krieg, J.Chem.Phys., 132, (2010), 154104 
   

================================================================================

----- Orbital basis set information -----
Your calculation utilizes the basis: def2-SVP
   F. Weigend and R. Ahlrichs, Phys. Chem. Chem. Phys. 7, 3297 (2005).

----- AuxJ basis set information -----
Your calculation utilizes the auxiliary basis: def2/J
   F. Weigend, Phys. Chem. Chem. Phys. 8, 1057 (2006).

================================================================================
                                        WARNINGS
                       Please study these warnings very carefully!
================================================================================


WARNING: your system is open-shell and RHF/RKS was chosen
  ===> : WILL SWITCH to UHF/UKS


INFO   : the flag for use of the SHARK integral package has been found!

================================================================================
                                       INPUT FILE
================================================================================
NAME = 22_0_orca.inp
|  1> ! EnGrad PBE0 RIJCOSX D3BJ def2-SVP def2/J 
|  2> %output 
|  3> xyzfile=True 
|  4> end 
|  5> %scf 
|  6> maxiter 250 
|  7> end
|  8> %output
|  9> Print[P_Hirshfeld] = 1
| 10> end
| 11> % maxcore
| 12> 4000
| 13> *xyz 0 2
| 14> O   -2.58696031   0.68459613   1.89533995 
| 15> O   -0.42765446  -0.40411629   0.81848420 
| 16> C   -0.72822825   0.14143748  -0.43408340 
| 17> C    0.15265636   0.86188123   0.51854040 
| 18> C    1.54113778   0.46402744   0.23214614 
| 19> C    1.37999044  -0.61611008  -0.53598465 
| 20> C    0.12295577  -0.67421660  -1.34646934 
| 21> H   -2.13834494  -0.12945873   2.17005372 
| 22> H   -1.76673833   0.42933783  -0.62139265 
| 23> H   -0.19012180   1.71106638   1.11339208 
| 24> H    2.43275425   0.77121547   0.77605711 
| 25> H    2.20825738  -1.29298964  -0.77485021 
| 26> H    0.28803984  -0.25627660  -2.35374645 
| 27> H   -0.28774992  -1.69027636  -1.45748925 
| 28> *
| 29> 
| 30>                          ****END OF INPUT****
================================================================================

                     *******************************
                     * Energy+Gradient Calculation *
                     *******************************

---------------------------------
CARTESIAN COORDINATES (ANGSTROEM)
---------------------------------
  O     -2.586960    0.684596    1.895340
  O     -0.427654   -0.404116    0.818484
  C     -0.728228    0.141437   -0.434083
  C      0.152656    0.861881    0.518540
  C      1.541138    0.464027    0.232146
  C      1.379990   -0.616110   -0.535985
  C      0.122956   -0.674217   -1.346469
  H     -2.138345   -0.129459    2.170054
  H     -1.766738    0.429338   -0.621393
  H     -0.190122    1.711066    1.113392
  H      2.432754    0.771215    0.776057
  H      2.208257   -1.292990   -0.774850
  H      0.288040   -0.256277   -2.353746
  H     -0.287750   -1.690276   -1.457489

----------------------------
CARTESIAN COORDINATES (A.U.)
----------------------------
  NO LB      ZA    FRAG     MASS         X           Y           Z
   0 O     8.0000    0    15.999   -4.888647    1.293699    3.581673
   1 O     8.0000    0    15.999   -0.808150   -0.763669    1.546711
   2 C     6.0000    0    12.011   -1.376152    0.267278   -0.820299
   3 C     6.0000    0    12.011    0.288479    1.628719    0.979899
   4 C     6.0000    0    12.011    2.912328    0.876885    0.438693
   5 C     6.0000    0    12.011    2.607804   -1.164279   -1.012864
   6 C     6.0000    0    12.011    0.232353   -1.274085   -2.544458
   7 H     1.0000    0     1.008   -4.040886   -0.244642    4.100807
   8 H     1.0000    0     1.008   -3.338652    0.811331   -1.174262
   9 H     1.0000    0     1.008   -0.359278    3.233447    2.104006
  10 H     1.0000    0     1.008    4.597239    1.457386    1.466535
  11 H     1.0000    0     1.008    4.173002   -2.443396   -1.464255
  12 H     1.0000    0     1.008    0.544316   -0.484293   -4.447936
  13 H     1.0000    0     1.008   -0.543769   -3.194159   -2.754256

--------------------------------
INTERNAL COORDINATES (ANGSTROEM)
--------------------------------
 O      0   0   0     0.000000000000     0.00000000     0.00000000
 O      1   0   0     2.647171092622     0.00000000     0.00000000
 C      2   1   0     1.398892101545    91.63801382     0.00000000
 C      2   1   3     1.424597013760    93.00594387    63.45706609
 C      4   2   1     1.472477491870   100.65832417   165.40287926
 C      5   4   2     1.335174309911   102.51348185    44.26622748
 C      3   2   1     1.490722615926   102.23682691   197.09841437
 H      1   2   3     0.969230994509    52.57790700   151.57685436
 H      3   2   1     1.093834792337   117.38539445   338.56565223
 H      4   2   1     1.091998538072   116.64805470    23.09938997
 H      5   4   2     1.088661360863   126.78891258   242.08773056
 H      6   5   4     1.096014971794   122.26175797   192.42379393
 H      7   3   2     1.102965897069   115.91748556   196.97455346
 H      7   3   2     1.101536209167   110.70091222    73.19568513

---------------------------
INTERNAL COORDINATES (A.U.)
---------------------------
 O      0   0   0     0.000000000000     0.00000000     0.00000000
 O      1   0   0     5.002428394689     0.00000000     0.00000000
 C      2   1   0     2.643522962826    91.63801382     0.00000000
 C      2   1   3     2.692098207208    93.00594387    63.45706609
 C      4   2   1     2.782579197997   100.65832417   165.40287926
 C      5   4   2     2.523113786779   102.51348185    44.26622748
 C      3   2   1     2.817057485743   102.23682691   197.09841437
 H      1   2   3     1.831581140131    52.57790700   151.57685436
 H      3   2   1     2.067048193272   117.38539445   338.56565223
 H      4   2   1     2.063578175599   116.64805470    23.09938997
 H      5   4   2     2.057271824614   126.78891258   242.08773056
 H      6   5   4     2.071168135368   122.26175797   192.42379393
 H      7   3   2     2.084303480516   115.91748556   196.97455346
 H      7   3   2     2.081601761923   110.70091222    73.19568513

---------------------
BASIS SET INFORMATION
---------------------
There are 3 groups of distinct atoms

 Group   1 Type O   : 7s4p1d contracted to 3s2p1d pattern {511/31/1}
 Group   2 Type C   : 7s4p1d contracted to 3s2p1d pattern {511/31/1}
 Group   3 Type H   : 4s1p contracted to 2s1p pattern {31/1}

Atom   0O    basis set group =>   1
Atom   1O    basis set group =>   1
Atom   2C    basis set group =>   2
Atom   3C    basis set group =>   2
Atom   4C    basis set group =>   2
Atom   5C    basis set group =>   2
Atom   6C    basis set group =>   2
Atom   7H    basis set group =>   3
Atom   8H    basis set group =>   3
Atom   9H    basis set group =>   3
Atom  10H    basis set group =>   3
Atom  11H    basis set group =>   3
Atom  12H    basis set group =>   3
Atom  13H    basis set group =>   3
---------------------------------
AUXILIARY/J BASIS SET INFORMATION
---------------------------------
There are 3 groups of distinct atoms

 Group   1 Type O   : 12s5p4d2f1g contracted to 6s4p3d1f1g pattern {711111/2111/211/2/1}
 Group   2 Type C   : 12s5p4d2f1g contracted to 6s4p3d1f1g pattern {711111/2111/211/2/1}
 Group   3 Type H   : 5s2p1d contracted to 3s1p1d pattern {311/2/1}

Atom   0O    basis set group =>   1
Atom   1O    basis set group =>   1
Atom   2C    basis set group =>   2
Atom   3C    basis set group =>   2
Atom   4C    basis set group =>   2
Atom   5C    basis set group =>   2
Atom   6C    basis set group =>   2
Atom   7H    basis set group =>   3
Atom   8H    basis set group =>   3
Atom   9H    basis set group =>   3
Atom  10H    basis set group =>   3
Atom  11H    basis set group =>   3
Atom  12H    basis set group =>   3
Atom  13H    basis set group =>   3
------------------------------------------------------------------------------
                           ORCA GTO INTEGRAL CALCULATION
                           -- RI-GTO INTEGRALS CHOSEN --
------------------------------------------------------------------------------
------------------------------------------------------------------------------
                   ___                                                        
                  /   \      - P O W E R E D   B Y -                         
                 /     \                                                     
                 |  |  |   _    _      __       _____    __    __             
                 |  |  |  | |  | |    /  \     |  _  \  |  |  /  |          
                  \  \/   | |  | |   /    \    | | | |  |  | /  /          
                 / \  \   | |__| |  /  /\  \   | |_| |  |  |/  /          
                |  |  |   |  __  | /  /__\  \  |    /   |      \           
                |  |  |   | |  | | |   __   |  |    \   |  |\   \          
                \     /   | |  | | |  |  |  |  | |\  \  |  | \   \       
                 \___/    |_|  |_| |__|  |__|  |_| \__\ |__|  \__/        
                                                                              
                      - O R C A' S   B I G   F R I E N D -                    
                                      &                                       
                       - I N T E G R A L  F E E D E R -                       
                                                                              
 v1 FN, 2020, v2 2021                                                         
------------------------------------------------------------------------------


Reading SHARK input file 22_0_orca.SHARKINP.tmp ... ok
----------------------
SHARK INTEGRAL PACKAGE
----------------------

Number of atoms                             ...     14
Number of basis functions                   ...    133
Number of shells                            ...     63
Maximum angular momentum                    ...      2
Integral batch strategy                     ... SHARK/LIBINT Hybrid
RI-J (if used) integral strategy            ... SPLIT-RIJ (Revised 2003 algorithm where possible)
Printlevel                                  ...      1
Contraction scheme used                     ... SEGMENTED contraction
Coulomb Range Separation                    ... NOT USED
Exchange Range Separation                   ... NOT USED
Finite Nucleus Model                        ... NOT USED
Auxiliary Coulomb fitting basis             ... AVAILABLE
   # of basis functions in Aux-J            ...    420
   # of shells in Aux-J                     ...    140
   Maximum angular momentum in Aux-J        ...      4
Auxiliary J/K fitting basis                 ... NOT available
Auxiliary Correlation fitting basis         ... NOT available
Auxiliary 'external' fitting basis          ... NOT available
Integral threshold                          ...     2.500000e-11
Primitive cut-off                           ...     2.500000e-12
Primitive pair pre-selection threshold      ...     2.500000e-12

Calculating pre-screening integrals         ... done (  0.0 sec) Dimension = 63
Organizing shell pair data                  ... done (  0.0 sec)
Shell pair information
Total number of shell pairs                 ...      2016
Shell pairs after pre-screening             ...      1935
Total number of primitive shell pairs       ...      7252
Primitive shell pairs kept                  ...      5336
          la=0 lb=0:    602 shell pairs
          la=1 lb=0:    712 shell pairs
          la=1 lb=1:    223 shell pairs
          la=2 lb=0:    234 shell pairs
          la=2 lb=1:    139 shell pairs
          la=2 lb=2:     25 shell pairs

Calculating one electron integrals          ... done (  0.0 sec)
Calculating RI/J V-Matrix + Cholesky decomp.... done (  0.0 sec)
Calculating Nuclear repulsion               ... done (  0.0 sec) ENN=    298.591613215735 Eh

SHARK setup successfully completed in   0.1 seconds

Maximum memory used throughout the entire GTOINT-calculation: 16.7 MB
-------------------------------------------------------------------------------
                                 ORCA SCF
-------------------------------------------------------------------------------

------------
SCF SETTINGS
------------
Hamiltonian:
 Density Functional     Method          .... DFT(GTOs)
 Exchange Functional    Exchange        .... PBE
   PBE kappa parameter   XKappa         ....  0.804000
   PBE mue parameter    XMuePBE         ....  0.219520
 Correlation Functional Correlation     .... PBE
   PBE beta parameter  CBetaPBE         ....  0.066725
 LDA part of GGA corr.  LDAOpt          .... PW91-LDA
 Gradients option       PostSCFGGA      .... off
 Hybrid DFT is turned on
   Fraction HF Exchange ScalHFX         ....  0.250000
   Scaling of DF-GGA-X  ScalDFX         ....  0.750000
   Scaling of DF-GGA-C  ScalDFC         ....  1.000000
   Scaling of DF-LDA-C  ScalLDAC        ....  1.000000
   Perturbative correction              ....  0.000000
   Density functional embedding theory  .... OFF
   NL short-range parameter             ....  6.900000
 RI-approximation to the Coulomb term is turned on
   Number of AuxJ basis functions       .... 420
   RIJ-COSX (HFX calculated with COS-X)).... on


General Settings:
 Integral files         IntName         .... 22_0_orca
 Hartree-Fock type      HFTyp           .... UHF
 Total Charge           Charge          ....    0
 Multiplicity           Mult            ....    2
 Number of Electrons    NEL             ....   53
 Basis Dimension        Dim             ....  133
 Nuclear Repulsion      ENuc            ....    298.5916132157 Eh

Convergence Acceleration:
 DIIS                   CNVDIIS         .... on
   Start iteration      DIISMaxIt       ....    12
   Startup error        DIISStart       ....  0.200000
   # of expansion vecs  DIISMaxEq       ....     5
   Bias factor          DIISBfac        ....   1.050
   Max. coefficient     DIISMaxC        ....  10.000
 Trust-Rad. Augm. Hess. CNVTRAH         .... auto
   Auto Start mean grad. ratio tolernc. ....  1.125000
   Auto Start start iteration           ....    20
   Auto Start num. interpolation iter.  ....    10
   Max. Number of Micro iterations      ....    16
   Max. Number of Macro iterations      .... Maxiter - #DIIS iter
   Number of Davidson start vectors     ....     2
   Converg. threshold I  (grad. norm)   ....   1.000e-05
   Converg. threshold II (energy diff.) ....   1.000e-08
   Grad. Scal. Fac. for Micro threshold ....   0.100
   Minimum threshold for Micro iter.    ....   0.010
   NR start threshold (gradient norm)   ....   0.001
   Initial trust radius                 ....   0.400
   Minimum AH scaling param. (alpha)    ....   1.000
   Maximum AH scaling param. (alpha)    .... 1000.000
   Orbital update algorithm             .... Taylor
   White noise on init. David. guess    .... on
   Maximum white noise                  ....   0.010
   Quad. conv. algorithm                .... NR
 SOSCF                  CNVSOSCF        .... off
 Level Shifting         CNVShift        .... on
   Level shift para.    LevelShift      ....    0.2500
   Turn off err/grad.   ShiftErr        ....    0.0010
 Zerner damping         CNVZerner       .... off
 Static damping         CNVDamp         .... on
   Fraction old density DampFac         ....    0.7000
   Max. Damping (<1)    DampMax         ....    0.9800
   Min. Damping (>=0)   DampMin         ....    0.0000
   Turn off err/grad.   DampErr         ....    0.1000
 Fernandez-Rico         CNVRico         .... off

SCF Procedure:
 Maximum # iterations   MaxIter         ....   250
 SCF integral mode      SCFMode         .... Direct
   Integral package                     .... SHARK and LIBINT hybrid scheme
 Reset frequency        DirectResetFreq ....    20
 Integral Threshold     Thresh          ....  2.500e-11 Eh
 Primitive CutOff       TCut            ....  2.500e-12 Eh

Convergence Tolerance:
 Convergence Check Mode ConvCheckMode   .... Total+1el-Energy
 Convergence forced     ConvForced      .... 0
 Energy Change          TolE            ....  1.000e-08 Eh
 1-El. energy change                    ....  1.000e-05 Eh
 DIIS Error             TolErr          ....  5.000e-07


Diagonalization of the overlap matrix:
Smallest eigenvalue                        ... 6.537e-04
Time for diagonalization                   ...    0.002 sec
Threshold for overlap eigenvalues          ... 1.000e-08
Number of eigenvalues below threshold      ... 0
Time for construction of square roots      ...    0.001 sec
Total time needed                          ...    0.003 sec

Time for model grid setup =    0.119 sec

------------------------------
INITIAL GUESS: MODEL POTENTIAL
------------------------------
Loading Hartree-Fock densities                     ... done
Calculating cut-offs                               ... done
Initializing the effective Hamiltonian             ... done
Setting up the integral package (SHARK)            ... done
Starting the Coulomb interaction                   ... done (   0.1 sec)
Reading the grid                                   ... done
Mapping shells                                     ... done
Starting the XC term evaluation                    ... done (   0.1 sec)
  promolecular density results
     # of electrons  =     52.997975930
     EX              =    -43.906087736
     EC              =     -1.758075293
     EX+EC           =    -45.664163030
Transforming the Hamiltonian                       ... done (   0.0 sec)
Diagonalizing the Hamiltonian                      ... done (   0.0 sec)
Back transforming the eigenvectors                 ... done (   0.0 sec)
Now organizing SCF variables                       ... done
                      ------------------
                      INITIAL GUESS DONE (   0.3 sec)
                      ------------------
-------------------
DFT GRID GENERATION
-------------------

General Integration Accuracy     IntAcc      ... 4.388
Radial Grid Type                 RadialGrid  ... OptM3 with GC (2021)
Angular Grid (max. ang.)         AngularGrid ... 4 (Lebedev-302)
Angular grid pruning method      GridPruning ... 4 (adaptive)
Weight generation scheme         WeightScheme... Becke
Basis function cutoff            BFCut       ... 1.0000e-11
Integration weight cutoff        WCut        ... 1.0000e-14
Angular grids for H and He will be reduced by one unit
Partially contracted basis set               ... off
Rotationally invariant grid construction     ... off

Total number of grid points                  ...    64871
Total number of batches                      ...     1019
Average number of points per batch           ...       63
Average number of grid points per atom       ...     4634
Time for grid setup =    0.488 sec

--------------------
COSX GRID GENERATION
--------------------

GRIDX 1
-------
General Integration Accuracy     IntAcc      ... 3.816
Radial Grid Type                 RadialGrid  ... OptM3 with GC (2021)
Angular Grid (max. ang.)         AngularGrid ... 1 (Lebedev-50)
Angular grid pruning method      GridPruning ... 4 (adaptive)
Weight generation scheme         WeightScheme... Becke
Basis function cutoff            BFCut       ... 1.0000e-11
Integration weight cutoff        WCut        ... 1.0000e-14
Angular grids for H and He will be reduced by one unit
Partially contracted basis set               ... on
Rotationally invariant grid construction     ... off

Total number of grid points                  ...     8303
Total number of batches                      ...      138
Average number of points per batch           ...       60
Average number of grid points per atom       ...      593
UseSFitting                                  ... on

GRIDX 2
-------
General Integration Accuracy     IntAcc      ... 4.020
Radial Grid Type                 RadialGrid  ... OptM3 with GC (2021)
Angular Grid (max. ang.)         AngularGrid ... 2 (Lebedev-110)
Angular grid pruning method      GridPruning ... 4 (adaptive)
Weight generation scheme         WeightScheme... Becke
Basis function cutoff            BFCut       ... 1.0000e-11
Integration weight cutoff        WCut        ... 1.0000e-14
Angular grids for H and He will be reduced by one unit
Partially contracted basis set               ... on
Rotationally invariant grid construction     ... off

Total number of grid points                  ...    18025
Total number of batches                      ...      290
Average number of points per batch           ...       62
Average number of grid points per atom       ...     1288
UseSFitting                                  ... on

GRIDX 3
-------
General Integration Accuracy     IntAcc      ... 4.338
Radial Grid Type                 RadialGrid  ... OptM3 with GC (2021)
Angular Grid (max. ang.)         AngularGrid ... 3 (Lebedev-194)
Angular grid pruning method      GridPruning ... 4 (adaptive)
Weight generation scheme         WeightScheme... Becke
Basis function cutoff            BFCut       ... 1.0000e-11
Integration weight cutoff        WCut        ... 1.0000e-14
Angular grids for H and He will be reduced by one unit
Partially contracted basis set               ... on
Rotationally invariant grid construction     ... off

Total number of grid points                  ...    39634
Total number of batches                      ...      626
Average number of points per batch           ...       63
Average number of grid points per atom       ...     2831
UseSFitting                                  ... on

Time for X-Grid setup             =    0.557 sec

--------------
SCF ITERATIONS
--------------
ITER       Energy         Delta-E        Max-DP      RMS-DP      [F,P]     Damp
               ***  Starting incremental Fock matrix formation  ***
  0   -343.9543826381   0.000000000000 0.12423387  0.00366338  0.2169198 0.7000
  1   -344.0420636130  -0.087680974851 0.03344226  0.00122106  0.0403275 0.7000
                               ***Turning on DIIS***
  2   -344.1344550239  -0.092391410897 0.05633345  0.00275643  0.0197244 0.0000
  3   -344.2516806453  -0.117225621491 0.02644046  0.00082378  0.0544404 0.0000
  4   -344.3021183150  -0.050437669691 0.02450949  0.00060246  0.0334557 0.0000
  5   -344.3259311820  -0.023812866928 0.02066442  0.00050175  0.0187462 0.0000
  6   -344.3380156776  -0.012084495653 0.01619979  0.00056138  0.0138404 0.0000
  7   -344.3455728474  -0.007557169765 0.01033918  0.00046348  0.0088287 0.0000
  8   -344.3491672943  -0.003594446945 0.00884749  0.00026863  0.0089042 0.0000
  9   -344.3512357020  -0.002068407655 0.00574862  0.00019507  0.0056447 0.0000
 10   -344.3523541891  -0.001118487121 0.00611614  0.00015562  0.0046555 0.0000
 11   -344.3529897773  -0.000635588216 0.00330266  0.00010174  0.0024982 0.0000
 12   -344.3532803933  -0.000290615949 0.00274330  0.00008002  0.0020202 0.0000
 13   -344.3534326214  -0.000152228084 0.00203935  0.00005580  0.0014090 0.0000
 14   -344.3535137635  -0.000081142131 0.00354118  0.00009811  0.0008106 0.0000
               *** Restarting incremental Fock matrix formation ***
                                   *** Resetting DIIS ***
 15   -344.3535680930  -0.000054329481 0.00094384  0.00003133  0.0004922 0.0000
 16   -344.3535623848   0.000005708185 0.00058808  0.00001966  0.0009021 0.0000
 17   -344.3535716108  -0.000009226068 0.00009097  0.00000306  0.0000934 0.0000
 18   -344.3535716855  -0.000000074688 0.00005702  0.00000179  0.0000631 0.0000
 19   -344.3535717453  -0.000000059717 0.00005531  0.00000120  0.0000248 0.0000
 20   -344.3535717671  -0.000000021850 0.00006886  0.00000114  0.0000226 0.0000
 21   -344.3535717901  -0.000000022964 0.00009238  0.00000128  0.0000247 0.0000
 22   -344.3535718055  -0.000000015426 0.00009055  0.00000116  0.0000255 0.0000
 23   -344.3535718277  -0.000000022247 0.00012056  0.00000147  0.0000255 0.0000
 24   -344.3535718460  -0.000000018237 0.00014710  0.00000178  0.0000249 0.0000
 25   -344.3535718697  -0.000000023721 0.00013342  0.00000158  0.0000239 0.0000

 WARNING: the maximum gradient error descreased on average only by a factor   1.1
          during the last 20 iterations

                      *** Initiating the TRAH-SCF procedure ***


TRAH GRIDX
----------

General Integration Accuracy     IntAcc      ... 3.067
Radial Grid Type                 RadialGrid  ... OptM3 with GC (2021)
Angular Grid (max. ang.)         AngularGrid ... 1 (Lebedev-50)
Angular grid pruning method      GridPruning ... 4 (adaptive)
Weight generation scheme         WeightScheme... Becke
Basis function cutoff            BFCut       ... 1.0000e-11
Integration weight cutoff        WCut        ... 1.0000e-14
Angular grids for H and He will be reduced by one unit
Partially contracted basis set               ... on
Rotationally invariant grid construction     ... off

Total number of grid points                  ...     4357
Total number of batches                      ...       77
Average number of points per batch           ...       56
Average number of grid points per atom       ...      311


TRAH GRID
---------

General Integration Accuracy     IntAcc      ... 3.467
Radial Grid Type                 RadialGrid  ... OptM3 with GC (2021)
Angular Grid (max. ang.)         AngularGrid ... 1 (Lebedev-50)
Angular grid pruning method      GridPruning ... 4 (adaptive)
Weight generation scheme         WeightScheme... Becke
Basis function cutoff            BFCut       ... 1.0000e-11
Integration weight cutoff        WCut        ... 1.0000e-14
Angular grids for H and He will be reduced by one unit
Partially contracted basis set               ... off
Rotationally invariant grid construction     ... off

Total number of grid points                  ...     9442
Total number of batches                      ...      153
Average number of points per batch           ...       61
Average number of grid points per atom       ...      674

 --------------------------------------------------------------------------------------------
   Iter.        energy            ||Error||_2        Shift      TRadius  Mac/Mic        Rej.
 --------------------------------------------------------------------------------------------
    0       -344.353571892383     3.829230e-05                     0.400 (TRAH MAcro)   No
    0     dE    -1.298367e-09     7.169601e-05    -1.3005e-09      0.000 (TRAH MIcro)
    0     dE    -2.305916e-07     4.373240e-04    -2.3058e-07      0.008 (TRAH MIcro)
    0     dE    -3.402917e-07     1.686206e-04    -3.4025e-07      0.011 (TRAH MIcro)
    0     dE    -3.639249e-07     1.163089e-04    -3.6387e-07      0.012 (TRAH MIcro)
    0     dE    -3.772569e-07     1.282459e-04    -3.7720e-07      0.013 (TRAH MIcro)
    0     dE    -3.851990e-07     6.481890e-05    -3.8513e-07      0.013 (TRAH MIcro)
    0     dE    -3.874447e-07     2.715273e-05    -3.8738e-07      0.013 (TRAH MIcro)
    0     dE    -3.881223e-07     1.816018e-05    -3.8806e-07      0.013 (TRAH MIcro)
    0     dE    -3.883446e-07     6.333153e-06    -3.8828e-07      0.013 (TRAH MIcro)
    0     dE    -3.883608e-07     3.285710e-06    -3.8829e-07      0.013 (TRAH MIcro)
    0     dE    -3.883613e-07     2.446771e-06    -3.8830e-07      0.013 (TRAH MIcro)
    0     dE    -3.883613e-07     2.580574e-06    -3.8830e-07      0.013 (TRAH MIcro)
    0     dE    -3.883616e-07     2.709844e-06    -3.8830e-07      0.013 (TRAH MIcro)
    0     dE    -3.883621e-07     3.041958e-06    -3.8830e-07      0.013 (TRAH MIcro)
    1       -344.353572060971     3.314443e-05                           (NR   MAcro)
    1     dE    -4.378712e-09     7.294640e-05                           (NR   MIcro)
    1     dE    -1.289284e-08     1.420103e-04                           (NR   MIcro)
    1     dE    -6.222906e-08     1.318729e-04                           (NR   MIcro)
    1     dE    -7.121975e-08     6.187476e-05                           (NR   MIcro)
    1     dE    -7.370532e-08     2.589482e-05                           (NR   MIcro)
    1     dE    -7.408217e-08     1.248972e-05                           (NR   MIcro)
    1     dE    -7.417218e-08     4.543082e-06                           (NR   MIcro)
    1     dE    -7.418998e-08     2.306499e-06                           (NR   MIcro)
    1     dE    -7.419316e-08     1.431593e-06                           (NR   MIcro)
    1     dE    -7.419399e-08     8.424965e-07                           (NR   MIcro)
    2       -344.353572124935     1.242353e-05                           (NR   MAcro)
    2     dE    -9.091296e-10     3.332855e-05                           (NR   MIcro)
    2     dE    -4.231425e-09     7.570894e-05                           (NR   MIcro)
    2     dE    -1.122093e-08     5.320586e-05                           (NR   MIcro)
    2     dE    -1.266160e-08     2.637225e-05                           (NR   MIcro)
    2     dE    -1.318850e-08     1.135068e-05                           (NR   MIcro)
    2     dE    -1.325838e-08     5.594160e-06                           (NR   MIcro)
    2     dE    -1.327917e-08     2.709475e-06                           (NR   MIcro)
    2     dE    -1.328718e-08     1.776368e-06                           (NR   MIcro)
    2     dE    -1.328942e-08     9.576586e-07                           (NR   MIcro)
    3       -344.353572123699     5.122314e-06                           (NR   MAcro)

               *****************************************************
               *                     SUCCESS                       *
               *           SCF CONVERGED AFTER  63 CYCLES          *
               *****************************************************

Old exchange energy                            =    -11.203593106 Eh
New exchange energy                            =    -11.203571061 Eh
Exchange energy change after final integration =      0.000022045 Eh
Total energy after final integration           =   -344.353550079 Eh
Final COS-X integration done in                =     4.537 sec

----------------
TOTAL SCF ENERGY
----------------

Total Energy       :         -344.35355008 Eh           -9370.33648 eV

Components:
Nuclear Repulsion  :          298.59161322 Eh            8125.09087 eV
Electronic Energy  :         -642.94516329 Eh          -17495.42734 eV
One Electron Energy:        -1060.19215611 Eh          -28849.29524 eV
Two Electron Energy:          417.24699281 Eh           11353.86789 eV
Max COSX asymmetry :            0.00000061 Eh               0.00002 eV

Virial components:
Potential Energy   :         -686.15346356 Eh          -18671.18497 eV
Kinetic Energy     :          341.79991348 Eh            9300.84849 eV
Virial Ratio       :            2.00747114


DFT components:
N(Alpha)           :       27.000012667394 electrons
N(Beta)            :       26.000009391442 electrons
N(Total)           :       53.000022058837 electrons
E(X)               :      -33.514217662640 Eh       
E(C)               :       -1.771598071427 Eh       
E(XC)              :      -35.285815734068 Eh       
DFET-embed. en.    :        0.000000000000 Eh       

---------------
SCF CONVERGENCE
---------------

  Last Energy change         ...    1.2361e-09  Tolerance :   1.0000e-08
  Last Orbital Gradient      ...    5.1223e-06  Tolerance :   1.0000e-05
  Last Orbital Rotation      ...    2.3969e-03

             **** THE GBW FILE WAS UPDATED (22_0_orca.gbw) ****
             **** DENSITY 22_0_orca.scfp WAS UPDATED ****
             **** ENERGY FILE WAS UPDATED (22_0_orca.en.tmp) ****
----------------------
UHF SPIN CONTAMINATION
----------------------

Warning: in a DFT calculation there is little theoretical justification to 
         calculate <S**2> as in Hartree-Fock theory. We will do it anyways
         but you should keep in mind that the values have only limited relevance

Expectation value of <S**2>     :     0.752173
Ideal value S*(S+1) for S=0.5   :     0.750000
Deviation                       :     0.002173

             **** THE GBW FILE WAS UPDATED (22_0_orca.gbw) ****
             **** DENSITY 22_0_orca.scfp WAS UPDATED ****
----------------
ORBITAL ENERGIES
----------------
                 SPIN UP ORBITALS
  NO   OCC          E(Eh)            E(eV) 
   0   1.0000     -19.243332      -523.6377 
   1   1.0000     -19.224896      -523.1360 
   2   1.0000     -10.291475      -280.0453 
   3   1.0000     -10.290885      -280.0292 
   4   1.0000     -10.245431      -278.7924 
   5   1.0000     -10.241404      -278.6828 
   6   1.0000     -10.233045      -278.4553 
   7   1.0000      -1.131655       -30.7939 
   8   1.0000      -0.996055       -27.1040 
   9   1.0000      -0.841484       -22.8979 
  10   1.0000      -0.754780       -20.5386 
  11   1.0000      -0.679845       -18.4995 
  12   1.0000      -0.599628       -16.3167 
  13   1.0000      -0.567726       -15.4486 
  14   1.0000      -0.564025       -15.3479 
  15   1.0000      -0.474608       -12.9148 
  16   1.0000      -0.471809       -12.8386 
  17   1.0000      -0.457146       -12.4396 
  18   1.0000      -0.436625       -11.8812 
  19   1.0000      -0.413226       -11.2444 
  20   1.0000      -0.400733       -10.9045 
  21   1.0000      -0.398895       -10.8545 
  22   1.0000      -0.372629       -10.1397 
  23   1.0000      -0.331297        -9.0151 
  24   1.0000      -0.323798        -8.8110 
  25   1.0000      -0.304882        -8.2963 
  26   1.0000      -0.243901        -6.6369 
  27   0.0000      -0.006348        -0.1727 
  28   0.0000       0.076697         2.0870 
  29   0.0000       0.102560         2.7908 
  30   0.0000       0.110781         3.0145 
  31   0.0000       0.115167         3.1339 
  32   0.0000       0.131138         3.5684 
  33   0.0000       0.141908         3.8615 
  34   0.0000       0.144763         3.9392 
  35   0.0000       0.155716         4.2372 
  36   0.0000       0.173523         4.7218 
  37   0.0000       0.210430         5.7261 
  38   0.0000       0.227222         6.1830 
  39   0.0000       0.303791         8.2666 
  40   0.0000       0.314377         8.5546 
  41   0.0000       0.387179        10.5357 
  42   0.0000       0.403825        10.9886 
  43   0.0000       0.455552        12.3962 
  44   0.0000       0.474451        12.9105 
  45   0.0000       0.485642        13.2150 
  46   0.0000       0.501392        13.6436 
  47   0.0000       0.517245        14.0749 
  48   0.0000       0.536327        14.5942 
  49   0.0000       0.558083        15.1862 
  50   0.0000       0.569292        15.4912 
  51   0.0000       0.605256        16.4698 
  52   0.0000       0.614098        16.7105 
  53   0.0000       0.632370        17.2077 
  54   0.0000       0.638125        17.3643 
  55   0.0000       0.642052        17.4711 
  56   0.0000       0.672094        18.2886 
  57   0.0000       0.680849        18.5268 
  58   0.0000       0.685282        18.6475 
  59   0.0000       0.687906        18.7189 
  60   0.0000       0.705656        19.2019 
  61   0.0000       0.727245        19.7893 
  62   0.0000       0.763276        20.7698 
  63   0.0000       0.810506        22.0550 
  64   0.0000       0.852188        23.1892 
  65   0.0000       0.898577        24.4515 
  66   0.0000       0.921532        25.0761 
  67   0.0000       0.956750        26.0345 
  68   0.0000       0.987597        26.8739 
  69   0.0000       1.015501        27.6332 
  70   0.0000       1.032528        28.0965 
  71   0.0000       1.060426        28.8557 
  72   0.0000       1.081700        29.4345 
  73   0.0000       1.107046        30.1243 
  74   0.0000       1.197036        32.5730 
  75   0.0000       1.234926        33.6040 
  76   0.0000       1.288421        35.0597 
  77   0.0000       1.313932        35.7539 
  78   0.0000       1.352371        36.7999 
  79   0.0000       1.456802        39.6416 
  80   0.0000       1.477812        40.2133 
  81   0.0000       1.518456        41.3193 
  82   0.0000       1.558586        42.4113 
  83   0.0000       1.591293        43.3013 
  84   0.0000       1.613660        43.9099 
  85   0.0000       1.650280        44.9064 
  86   0.0000       1.667361        45.3712 
  87   0.0000       1.706095        46.4252 
  88   0.0000       1.713662        46.6311 
  89   0.0000       1.740870        47.3715 
  90   0.0000       1.776027        48.3282 
  91   0.0000       1.787681        48.6453 
  92   0.0000       1.817311        49.4515 
  93   0.0000       1.839087        50.0441 
  94   0.0000       1.869059        50.8597 
  95   0.0000       1.885873        51.3172 
  96   0.0000       1.953287        53.1516 
  97   0.0000       1.968879        53.5759 
  98   0.0000       1.994281        54.2671 
  99   0.0000       2.008335        54.6496 
 100   0.0000       2.035946        55.4009 
 101   0.0000       2.101245        57.1778 
 102   0.0000       2.127484        57.8918 
 103   0.0000       2.152849        58.5820 
 104   0.0000       2.207267        60.0628 
 105   0.0000       2.221285        60.4442 
 106   0.0000       2.249067        61.2002 
 107   0.0000       2.272977        61.8508 
 108   0.0000       2.292972        62.3949 
 109   0.0000       2.392767        65.1105 
 110   0.0000       2.426655        66.0327 
 111   0.0000       2.479459        67.4695 
 112   0.0000       2.518823        68.5407 
 113   0.0000       2.594510        70.6002 
 114   0.0000       2.616808        71.2070 
 115   0.0000       2.630874        71.5897 
 116   0.0000       2.682493        72.9943 
 117   0.0000       2.746263        74.7296 
 118   0.0000       2.753581        74.9287 
 119   0.0000       2.797498        76.1238 
 120   0.0000       2.819242        76.7155 
 121   0.0000       2.894807        78.7717 
 122   0.0000       2.910680        79.2036 
 123   0.0000       2.949571        80.2619 
 124   0.0000       2.983831        81.1942 
 125   0.0000       2.997362        81.5624 
 126   0.0000       3.050511        83.0086 
 127   0.0000       3.113436        84.7209 
 128   0.0000       3.178152        86.4819 
 129   0.0000       3.361618        91.4743 
 130   0.0000       3.403028        92.6011 
 131   0.0000       3.483742        94.7974 
 132   0.0000       3.705860       100.8416 

                 SPIN DOWN ORBITALS
  NO   OCC          E(Eh)            E(eV) 
   0   1.0000     -19.223852      -523.1076 
   1   1.0000     -19.216940      -522.9195 
   2   1.0000     -10.291476      -280.0453 
   3   1.0000     -10.290856      -280.0284 
   4   1.0000     -10.245434      -278.7924 
   5   1.0000     -10.241380      -278.6821 
   6   1.0000     -10.232961      -278.4530 
   7   1.0000      -1.130237       -30.7553 
   8   1.0000      -0.921347       -25.0711 
   9   1.0000      -0.840924       -22.8827 
  10   1.0000      -0.754675       -20.5357 
  11   1.0000      -0.679311       -18.4850 
  12   1.0000      -0.599452       -16.3119 
  13   1.0000      -0.566770       -15.4226 
  14   1.0000      -0.563189       -15.3252 
  15   1.0000      -0.472429       -12.8554 
  16   1.0000      -0.471349       -12.8260 
  17   1.0000      -0.438955       -11.9446 
  18   1.0000      -0.428523       -11.6607 
  19   1.0000      -0.408788       -11.1237 
  20   1.0000      -0.400357       -10.8943 
  21   1.0000      -0.375178       -10.2091 
  22   1.0000      -0.330666        -8.9979 
  23   1.0000      -0.303337        -8.2542 
  24   1.0000      -0.296849        -8.0777 
  25   1.0000      -0.243311        -6.6208 
  26   0.0000      -0.115640        -3.1467 
  27   0.0000      -0.006004        -0.1634 
  28   0.0000       0.078560         2.1377 
  29   0.0000       0.104638         2.8474 
  30   0.0000       0.114304         3.1104 
  31   0.0000       0.115535         3.1439 
  32   0.0000       0.132501         3.6055 
  33   0.0000       0.142144         3.8679 
  34   0.0000       0.145670         3.9639 
  35   0.0000       0.156043         4.2461 
  36   0.0000       0.177892         4.8407 
  37   0.0000       0.211240         5.7481 
  38   0.0000       0.227623         6.1939 
  39   0.0000       0.304113         8.2753 
  40   0.0000       0.315288         8.5794 
  41   0.0000       0.387750        10.5512 
  42   0.0000       0.404052        10.9948 
  43   0.0000       0.455974        12.4077 
  44   0.0000       0.476368        12.9626 
  45   0.0000       0.485851        13.2207 
  46   0.0000       0.502302        13.6683 
  47   0.0000       0.519166        14.1272 
  48   0.0000       0.539546        14.6818 
  49   0.0000       0.558714        15.2034 
  50   0.0000       0.569609        15.4999 
  51   0.0000       0.605687        16.4816 
  52   0.0000       0.615184        16.7400 
  53   0.0000       0.636654        17.3242 
  54   0.0000       0.640644        17.4328 
  55   0.0000       0.653528        17.7834 
  56   0.0000       0.672629        18.3032 
  57   0.0000       0.681247        18.5377 
  58   0.0000       0.686172        18.6717 
  59   0.0000       0.688110        18.7244 
  60   0.0000       0.706011        19.2115 
  61   0.0000       0.727719        19.8022 
  62   0.0000       0.764328        20.7984 
  63   0.0000       0.811832        22.0911 
  64   0.0000       0.853228        23.2175 
  65   0.0000       0.903687        24.5906 
  66   0.0000       0.950099        25.8535 
  67   0.0000       0.965116        26.2621 
  68   0.0000       0.998785        27.1783 
  69   0.0000       1.024339        27.8737 
  70   0.0000       1.041514        28.3410 
  71   0.0000       1.083094        29.4725 
  72   0.0000       1.104196        30.0467 
  73   0.0000       1.118814        30.4445 
  74   0.0000       1.200355        32.6633 
  75   0.0000       1.241474        33.7822 
  76   0.0000       1.307290        35.5732 
  77   0.0000       1.316774        35.8312 
  78   0.0000       1.353208        36.8227 
  79   0.0000       1.455412        39.6038 
  80   0.0000       1.478259        40.2255 
  81   0.0000       1.520992        41.3883 
  82   0.0000       1.558678        42.4138 
  83   0.0000       1.598327        43.4927 
  84   0.0000       1.614649        43.9368 
  85   0.0000       1.654119        45.0109 
  86   0.0000       1.669538        45.4304 
  87   0.0000       1.706524        46.4369 
  88   0.0000       1.713850        46.6362 
  89   0.0000       1.741282        47.3827 
  90   0.0000       1.776760        48.3481 
  91   0.0000       1.788336        48.6631 
  92   0.0000       1.817388        49.4536 
  93   0.0000       1.839287        50.0495 
  94   0.0000       1.869515        50.8721 
  95   0.0000       1.886017        51.3211 
  96   0.0000       1.954070        53.1729 
  97   0.0000       1.968966        53.5783 
  98   0.0000       1.994727        54.2793 
  99   0.0000       2.008739        54.6606 
 100   0.0000       2.036951        55.4282 
 101   0.0000       2.101781        57.1924 
 102   0.0000       2.127798        57.9003 
 103   0.0000       2.153213        58.5919 
 104   0.0000       2.207528        60.0699 
 105   0.0000       2.238284        60.9068 
 106   0.0000       2.250659        61.2436 
 107   0.0000       2.273404        61.8625 
 108   0.0000       2.293251        62.4025 
 109   0.0000       2.392874        65.1134 
 110   0.0000       2.427554        66.0571 
 111   0.0000       2.480033        67.4851 
 112   0.0000       2.519100        68.5482 
 113   0.0000       2.606162        70.9173 
 114   0.0000       2.679037        72.9003 
 115   0.0000       2.702355        73.5348 
 116   0.0000       2.714191        73.8569 
 117   0.0000       2.746749        74.7429 
 118   0.0000       2.754326        74.9490 
 119   0.0000       2.797772        76.1312 
 120   0.0000       2.819927        76.7341 
 121   0.0000       2.895419        78.7883 
 122   0.0000       2.912082        79.2418 
 123   0.0000       2.993275        81.4512 
 124   0.0000       3.000111        81.6372 
 125   0.0000       3.023887        82.2841 
 126   0.0000       3.050577        83.0104 
 127   0.0000       3.114988        84.7631 
 128   0.0000       3.179218        86.5109 
 129   0.0000       3.363047        91.5132 
 130   0.0000       3.403477        92.6133 
 131   0.0000       3.484180        94.8094 
 132   0.0000       3.732330       101.5619 

                    ********************************
                    * MULLIKEN POPULATION ANALYSIS *
                    ********************************

--------------------------------------------
MULLIKEN ATOMIC CHARGES AND SPIN POPULATIONS
--------------------------------------------
   0 O :   -0.210181    0.995889
   1 O :   -0.342369    0.024282
   2 C :   -0.012726   -0.000286
   3 C :    0.077298   -0.001381
   4 C :    0.018325    0.006320
   5 C :   -0.134306   -0.001210
   6 C :    0.112406    0.000035
   7 H :    0.191590   -0.026117
   8 H :    0.058005    0.001799
   9 H :    0.052236    0.000757
  10 H :    0.037289   -0.000317
  11 H :    0.029732    0.000498
  12 H :    0.063459   -0.000205
  13 H :    0.059243   -0.000064
Sum of atomic charges         :   -0.0000000
Sum of atomic spin populations:    1.0000000

-----------------------------------------------------
MULLIKEN REDUCED ORBITAL CHARGES AND SPIN POPULATIONS
-----------------------------------------------------
CHARGE
  0 O s       :     3.867321  s :     3.867321
      pz      :     1.392311  p :     4.336425
      px      :     1.411757
      py      :     1.532357
      dz2     :     0.000823  d :     0.006435
      dxz     :     0.000742
      dyz     :     0.001156
      dx2y2   :     0.001449
      dxy     :     0.002265
  1 O s       :     3.860761  s :     3.860761
      pz      :     1.404918  p :     4.460351
      px      :     1.685714
      py      :     1.369718
      dz2     :     0.005416  d :     0.021258
      dxz     :     0.002772
      dyz     :     0.005759
      dx2y2   :     0.003756
      dxy     :     0.003555
  2 C s       :     3.226536  s :     3.226536
      pz      :     0.788537  p :     2.710126
      px      :     0.981196
      py      :     0.940393
      dz2     :     0.020827  d :     0.076063
      dxz     :     0.017619
      dyz     :     0.019217
      dx2y2   :     0.008699
      dxy     :     0.009701
  3 C s       :     3.192333  s :     3.192333
      pz      :     0.954273  p :     2.657803
      px      :     0.936444
      py      :     0.767087
      dz2     :     0.008659  d :     0.072566
      dxz     :     0.010730
      dyz     :     0.013978
      dx2y2   :     0.020009
      dxy     :     0.019191
  4 C s       :     3.151261  s :     3.151261
      pz      :     0.992756  p :     2.795785
      px      :     0.847244
      py      :     0.955785
      dz2     :     0.005398  d :     0.034629
      dxz     :     0.007715
      dyz     :     0.004764
      dx2y2   :     0.008732
      dxy     :     0.008020
  5 C s       :     3.215720  s :     3.215720
      pz      :     0.966896  p :     2.879784
      px      :     0.951006
      py      :     0.961883
      dz2     :     0.007510  d :     0.038803
      dxz     :     0.007626
      dyz     :     0.005802
      dx2y2   :     0.008161
      dxy     :     0.009705
  6 C s       :     2.926699  s :     2.926699
      pz      :     0.982272  p :     2.924659
      px      :     0.938237
      py      :     1.004150
      dz2     :     0.007900  d :     0.036236
      dxz     :     0.008465
      dyz     :     0.005870
      dx2y2   :     0.007209
      dxy     :     0.006792
  7 H s       :     0.740204  s :     0.740204
      pz      :     0.015099  p :     0.068206
      px      :     0.021349
      py      :     0.031759
  8 H s       :     0.919475  s :     0.919475
      pz      :     0.002501  p :     0.022520
      px      :     0.015135
      py      :     0.004884
  9 H s       :     0.924955  s :     0.924955
      pz      :     0.007763  p :     0.022809
      px      :     0.004176
      py      :     0.010870
 10 H s       :     0.938208  s :     0.938208
      pz      :     0.007874  p :     0.024503
      px      :     0.011704
      py      :     0.004926
 11 H s       :     0.946799  s :     0.946799
      pz      :     0.004784  p :     0.023469
      px      :     0.010329
      py      :     0.008356
 12 H s       :     0.913309  s :     0.913309
      pz      :     0.012844  p :     0.023232
      px      :     0.004375
      py      :     0.006012
 13 H s       :     0.917641  s :     0.917641
      pz      :     0.004255  p :     0.023117
      px      :     0.005522
      py      :     0.013339

SPIN
  0 O s       :     0.014805  s :     0.014805
      pz      :     0.518694  p :     0.980696
      px      :     0.442409
      py      :     0.019593
      dz2     :     0.000032  d :     0.000388
      dxz     :     0.000052
      dyz     :     0.000182
      dx2y2   :    -0.000006
      dxy     :     0.000128
  1 O s       :     0.000981  s :     0.000981
      pz      :     0.003573  p :     0.023273
      px      :     0.016404
      py      :     0.003295
      dz2     :    -0.000011  d :     0.000028
      dxz     :     0.000044
      dyz     :     0.000003
      dx2y2   :     0.000015
      dxy     :    -0.000024
  2 C s       :     0.000197  s :     0.000197
      pz      :    -0.000803  p :    -0.000521
      px      :     0.000407
      py      :    -0.000125
      dz2     :     0.000036  d :     0.000039
      dxz     :    -0.000029
      dyz     :    -0.000014
      dx2y2   :     0.000002
      dxy     :     0.000043
  3 C s       :    -0.000014  s :    -0.000014
      pz      :    -0.000224  p :    -0.001403
      px      :    -0.000213
      py      :    -0.000966
      dz2     :     0.000006  d :     0.000036
      dxz     :     0.000004
      dyz     :     0.000001
      dx2y2   :     0.000023
      dxy     :     0.000001
  4 C s       :     0.001031  s :     0.001031
      pz      :     0.002540  p :     0.005311
      px      :    -0.000007
      py      :     0.002779
      dz2     :    -0.000008  d :    -0.000022
      dxz     :    -0.000002
      dyz     :    -0.000014
      dx2y2   :     0.000013
      dxy     :    -0.000011
  5 C s       :    -0.000136  s :    -0.000136
      pz      :    -0.000786  p :    -0.001134
      px      :     0.000373
      py      :    -0.000720
      dz2     :     0.000028  d :     0.000060
      dxz     :     0.000028
      dyz     :     0.000012
      dx2y2   :     0.000001
      dxy     :    -0.000009
  6 C s       :     0.000250  s :     0.000250
      pz      :     0.000065  p :    -0.000206
      px      :    -0.000019
      py      :    -0.000253
      dz2     :    -0.000021  d :    -0.000009
      dxz     :     0.000016
      dyz     :    -0.000005
      dx2y2   :    -0.000001
      dxy     :     0.000001
  7 H s       :    -0.032228  s :    -0.032228
      pz      :     0.003842  p :     0.006111
      px      :     0.002362
      py      :    -0.000093
  8 H s       :     0.001735  s :     0.001735
      pz      :     0.000011  p :     0.000064
      px      :     0.000050
      py      :     0.000003
  9 H s       :     0.000718  s :     0.000718
      pz      :     0.000004  p :     0.000039
      px      :     0.000040
      py      :    -0.000004
 10 H s       :    -0.000348  s :    -0.000348
      pz      :     0.000021  p :     0.000031
      px      :     0.000002
      py      :     0.000008
 11 H s       :     0.000497  s :     0.000497
      pz      :    -0.000002  p :     0.000001
      px      :    -0.000004
      py      :     0.000007
 12 H s       :    -0.000205  s :    -0.000205
      pz      :     0.000001  p :    -0.000000
      px      :    -0.000003
      py      :     0.000001
 13 H s       :    -0.000065  s :    -0.000065
      pz      :    -0.000000  p :     0.000000
      px      :     0.000000
      py      :     0.000000


                     *******************************
                     * LOEWDIN POPULATION ANALYSIS *
                     *******************************

-------------------------------------------
LOEWDIN ATOMIC CHARGES AND SPIN POPULATIONS
-------------------------------------------
   0 O :   -0.085658    0.964573
   1 O :   -0.156453    0.025862
   2 C :    0.048489    0.001036
   3 C :    0.051016   -0.000279
   4 C :   -0.060286    0.004804
   5 C :   -0.001701   -0.000194
   6 C :   -0.047012   -0.000219
   7 H :    0.051981    0.002512
   8 H :    0.024730    0.001214
   9 H :    0.027350    0.000603
  10 H :    0.034247   -0.000003
  11 H :    0.024374    0.000280
  12 H :    0.043900   -0.000145
  13 H :    0.045025   -0.000043

----------------------------------------------------
LOEWDIN REDUCED ORBITAL CHARGES AND SPIN POPULATIONS
----------------------------------------------------
CHARGE
  0 O s       :     3.685597  s :     3.685597
      pz      :     1.382505  p :     4.389063
      px      :     1.413550
      py      :     1.593008
      dz2     :     0.001528  d :     0.010999
      dxz     :     0.000974
      dyz     :     0.001834
      dx2y2   :     0.002127
      dxy     :     0.004535
  1 O s       :     3.542948  s :     3.542948
      pz      :     1.459369  p :     4.577915
      px      :     1.680856
      py      :     1.437690
      dz2     :     0.008829  d :     0.035590
      dxz     :     0.004187
      dyz     :     0.010770
      dx2y2   :     0.006054
      dxy     :     0.005749
  2 C s       :     2.852418  s :     2.852418
      pz      :     0.877723  p :     2.931246
      px      :     1.051634
      py      :     1.001889
      dz2     :     0.041835  d :     0.167847
      dxz     :     0.041986
      dyz     :     0.043311
      dx2y2   :     0.018205
      dxy     :     0.022510
  3 C s       :     2.857930  s :     2.857930
      pz      :     1.022069  p :     2.930258
      px      :     1.009166
      py      :     0.899024
      dz2     :     0.018933  d :     0.160796
      dxz     :     0.024776
      dyz     :     0.030438
      dx2y2   :     0.047734
      dxy     :     0.038914
  4 C s       :     2.874536  s :     2.874536
      pz      :     1.037045  p :     3.095260
      px      :     1.022549
      py      :     1.035666
      dz2     :     0.011640  d :     0.090490
      dxz     :     0.020239
      dyz     :     0.013296
      dx2y2   :     0.024537
      dxy     :     0.020778
  5 C s       :     2.881055  s :     2.881055
      pz      :     0.990554  p :     3.025383
      px      :     0.998553
      py      :     1.036276
      dz2     :     0.015799  d :     0.095264
      dxz     :     0.019703
      dyz     :     0.014837
      dx2y2   :     0.020816
      dxy     :     0.024109
  6 C s       :     2.838839  s :     2.838839
      pz      :     1.037062  p :     3.114067
      px      :     1.025044
      py      :     1.051961
      dz2     :     0.020405  d :     0.094106
      dxz     :     0.023163
      dyz     :     0.014469
      dx2y2   :     0.018977
      dxy     :     0.017092
  7 H s       :     0.761188  s :     0.761188
      pz      :     0.042138  p :     0.186831
      px      :     0.055892
      py      :     0.088801
  8 H s       :     0.903535  s :     0.903535
      pz      :     0.010922  p :     0.071735
      px      :     0.044485
      py      :     0.016328
  9 H s       :     0.901280  s :     0.901280
      pz      :     0.023805  p :     0.071370
      px      :     0.015415
      py      :     0.032150
 10 H s       :     0.893862  s :     0.893862
      pz      :     0.022916  p :     0.071891
      px      :     0.034376
      py      :     0.014600
 11 H s       :     0.906139  s :     0.906139
      pz      :     0.015290  p :     0.069487
      px      :     0.031023
      py      :     0.023174
 12 H s       :     0.889336  s :     0.889336
      pz      :     0.036627  p :     0.066764
      px      :     0.013337
      py      :     0.016800
 13 H s       :     0.887880  s :     0.887880
      pz      :     0.012473  p :     0.067095
      px      :     0.016813
      py      :     0.037810

SPIN
  0 O s       :     0.009225  s :     0.009225
      pz      :     0.509854  p :     0.955208
      px      :     0.431786
      py      :     0.013567
      dz2     :     0.000034  d :     0.000140
      dxz     :     0.000205
      dyz     :    -0.000030
      dx2y2   :     0.000028
      dxy     :    -0.000098
  1 O s       :     0.000737  s :     0.000737
      pz      :     0.003951  p :     0.025099
      px      :     0.017867
      py      :     0.003281
      dz2     :    -0.000014  d :     0.000025
      dxz     :     0.000040
      dyz     :     0.000005
      dx2y2   :     0.000013
      dxy     :    -0.000019
  2 C s       :     0.000395  s :     0.000395
      pz      :    -0.000118  p :     0.000610
      px      :     0.000735
      py      :    -0.000007
      dz2     :     0.000134  d :     0.000031
      dxz     :    -0.000148
      dyz     :    -0.000053
      dx2y2   :     0.000013
      dxy     :     0.000085
  3 C s       :     0.000101  s :     0.000101
      pz      :    -0.000287  p :    -0.000400
      px      :     0.000301
      py      :    -0.000414
      dz2     :     0.000010  d :     0.000021
      dxz     :     0.000016
      dyz     :     0.000011
      dx2y2   :    -0.000035
      dxy     :     0.000019
  4 C s       :     0.000103  s :     0.000103
      pz      :     0.002525  p :     0.004733
      px      :     0.000086
      py      :     0.002122
      dz2     :    -0.000015  d :    -0.000032
      dxz     :    -0.000014
      dyz     :    -0.000014
      dx2y2   :     0.000027
      dxy     :    -0.000016
  5 C s       :     0.000269  s :     0.000269
      pz      :    -0.000596  p :    -0.000621
      px      :     0.000415
      py      :    -0.000440
      dz2     :     0.000073  d :     0.000158
      dxz     :     0.000079
      dyz     :     0.000024
      dx2y2   :     0.000005
      dxy     :    -0.000023
  6 C s       :    -0.000113  s :    -0.000113
      pz      :     0.000023  p :    -0.000092
      px      :     0.000067
      py      :    -0.000182
      dz2     :    -0.000040  d :    -0.000014
      dxz     :     0.000022
      dyz     :    -0.000007
      dx2y2   :    -0.000004
      dxy     :     0.000015
  7 H s       :    -0.021476  s :    -0.021476
      pz      :     0.012825  p :     0.023988
      px      :     0.008335
      py      :     0.002828
  8 H s       :     0.000997  s :     0.000997
      pz      :    -0.000034  p :     0.000217
      px      :     0.000242
      py      :     0.000009
  9 H s       :     0.000489  s :     0.000489
      pz      :     0.000021  p :     0.000113
      px      :     0.000069
      py      :     0.000023
 10 H s       :    -0.000137  s :    -0.000137
      pz      :     0.000063  p :     0.000134
      px      :     0.000008
      py      :     0.000064
 11 H s       :     0.000308  s :     0.000308
      pz      :    -0.000014  p :    -0.000028
      px      :     0.000009
      py      :    -0.000022
 12 H s       :    -0.000125  s :    -0.000125
      pz      :    -0.000005  p :    -0.000020
      px      :    -0.000012
      py      :    -0.000003
 13 H s       :    -0.000043  s :    -0.000043
      pz      :     0.000000  p :    -0.000000
      px      :     0.000005
      py      :    -0.000005


                      *****************************
                      * MAYER POPULATION ANALYSIS *
                      *****************************

  NA   - Mulliken gross atomic population
  ZA   - Total nuclear charge
  QA   - Mulliken gross atomic charge
  VA   - Mayer's total valence
  BVA  - Mayer's bonded valence
  FA   - Mayer's free valence

  ATOM       NA         ZA         QA         VA         BVA        FA
  0 O      8.2102     8.0000    -0.2102     2.0038     1.0788     0.9250
  1 O      8.3424     8.0000    -0.3424     1.9926     1.9919     0.0006
  2 C      6.0127     6.0000    -0.0127     3.9918     3.9918     0.0000
  3 C      5.9227     6.0000     0.0773     3.8896     3.8896     0.0000
  4 C      5.9817     6.0000     0.0183     3.7749     3.7749     0.0000
  5 C      6.1343     6.0000    -0.1343     4.0036     4.0036     0.0000
  6 C      5.8876     6.0000     0.1124     3.7960     3.7960     0.0000
  7 H      0.8084     1.0000     0.1916     1.0174     1.0161     0.0013
  8 H      0.9420     1.0000     0.0580     1.0040     1.0040     0.0000
  9 H      0.9478     1.0000     0.0522     1.0052     1.0051     0.0000
 10 H      0.9627     1.0000     0.0373     0.9903     0.9903     0.0000
 11 H      0.9703     1.0000     0.0297     0.9881     0.9881     0.0000
 12 H      0.9365     1.0000     0.0635     0.9820     0.9820     0.0000
 13 H      0.9408     1.0000     0.0592     0.9831     0.9831     0.0000

  Mayer bond orders larger than 0.100000
B(  0-O ,  7-H ) :   0.9690 B(  1-O ,  2-C ) :   0.9380 B(  1-O ,  3-C ) :   0.9048 
B(  2-C ,  3-C ) :   1.0099 B(  2-C ,  6-C ) :   0.9967 B(  2-C ,  8-H ) :   0.9718 
B(  3-C ,  4-C ) :   0.9706 B(  3-C ,  9-H ) :   0.9824 B(  4-C ,  5-C ) :   1.8377 
B(  4-C , 10-H ) :   0.9948 B(  5-C ,  6-C ) :   1.0208 B(  5-C , 11-H ) :   0.9659 
B(  6-C , 12-H ) :   0.9237 B(  6-C , 13-H ) :   0.9244 


------------------
HIRSHFELD ANALYSIS
------------------

Total integrated alpha density =     27.000012667
Total integrated beta density  =     26.000009391

  ATOM     CHARGE      SPIN    
   0 O   -0.191078    0.925839
   1 O   -0.174690    0.027553
   2 C    0.047713    0.003529
   3 C    0.042317    0.002499
   4 C   -0.057199    0.003921
   5 C   -0.021822    0.000665
   6 C   -0.041510   -0.000015
   7 H    0.143468    0.030088
   8 H    0.046002    0.003351
   9 H    0.049200    0.002232
  10 H    0.046794    0.000264
  11 H    0.031699    0.000238
  12 H    0.039276   -0.000122
  13 H    0.039806   -0.000038

  TOTAL  -0.000022    1.000003

-------
TIMINGS
-------

Total SCF time: 0 days 0 hours 1 min 48 sec 

Total time                  ....     108.755 sec
Sum of individual times     ....     108.421 sec  ( 99.7%)

Fock matrix formation       ....     106.526 sec  ( 98.0%)
  Split-RI-J                ....      10.083 sec  (  9.5% of F)
  Chain of spheres X        ....      70.844 sec  ( 66.5% of F)
  XC integration            ....      25.592 sec  ( 24.0% of F)
    Basis function eval.    ....       6.791 sec  ( 26.5% of XC)
    Density eval.           ....       6.886 sec  ( 26.9% of XC)
    XC-Functional eval.     ....       1.988 sec  (  7.8% of XC)
    XC-Potential eval.      ....       9.118 sec  ( 35.6% of XC)
Diagonalization             ....       0.111 sec  (  0.1%)
Density matrix formation    ....       0.012 sec  (  0.0%)
Population analysis         ....       0.324 sec  (  0.3%)
Initial guess               ....       0.215 sec  (  0.2%)
Orbital Transformation      ....       0.039 sec  (  0.0%)
Orbital Orthonormalization  ....       0.000 sec  (  0.0%)
DIIS solution               ....       0.029 sec  (  0.0%)
Grid generation             ....       1.164 sec  (  1.1%)

Maximum memory used throughout the entire SCF-calculation: 63.3 MB


-------------------------------------------------------------------------------
                          DFT DISPERSION CORRECTION                            
                                                                               
                              DFTD3 V3.1  Rev 1                                
                          USING Becke-Johnson damping                          
-------------------------------------------------------------------------------
The PBE0 functional is recognized
Active option DFTDOPT                   ...         4   

molecular C6(AA) [au] = 1727.581362 


            DFT-D V3
 parameters
 s6 scaling factor         :     1.0000 
 a1 scaling factor         :     0.4145 
 s8 scaling factor         :     1.2177 
 a2 scaling factor         :     4.8593 
 ad hoc parameters k1-k3   :    16.0000     1.3333    -4.0000 

 Edisp/kcal,au: -6.071505127950  -0.009675558268 
 E6   /kcal   :  -3.864074342 
 E8   /kcal   :  -2.207430786 
 % E8         :  36.357225090 

-------------------------   ----------------
Dispersion correction           -0.009675558
-------------------------   ----------------


-------------------------   --------------------
FINAL SINGLE POINT ENERGY      -344.363225636857
-------------------------   --------------------

------------------------------------------------------------------------------
                         ORCA SCF GRADIENT CALCULATION
------------------------------------------------------------------------------

 ... reading COSX grid (gridx3)
Gradient of the Kohn-Sham DFT energy:
Kohn-Sham wavefunction type      ... UKS
Hartree-Fock exchange scaling    ...    0.250
Number of operators              ...    2
Number of atoms                  ...   14
Basis set dimensions             ...  133
Integral neglect threshold       ... 2.5e-11
Integral primitive cutoff        ... 2.5e-12
SHARK Integral package           ... ON

Nuc. rep. gradient       (SHARK) ... done (  0.0 sec)
HCore & Overlap gradient (SHARK) ... done (  0.1 sec)
RI-J gradient            (SHARK) ... done (  0.5 sec)
COSX-gradient                    ... done (  6.2 sec)
Exchange-correlation gradient    ... done
Dispersion correction            ... done

------------------
CARTESIAN GRADIENT
------------------

   1   O   :    0.003483073   -0.006053540    0.001676813
   2   O   :    0.060527420   -0.006828601   -0.045615301
   3   C   :    0.000737983    0.000652893   -0.000237642
   4   C   :   -0.000013640    0.000090930   -0.001077410
   5   C   :   -0.000165010    0.000409175    0.000646938
   6   C   :   -0.059501134    0.006292979    0.044413942
   7   C   :   -0.000328159   -0.000067890    0.000117755
   8   H   :   -0.004647027    0.005774084   -0.000542666
   9   H   :    0.000172889    0.000012523    0.000642147
  10   H   :   -0.000317923   -0.000372473   -0.000075510
  11   H   :   -0.000041041   -0.000068721    0.000008955
  12   H   :    0.000016538    0.000029887   -0.000040991
  13   H   :   -0.000089257    0.000016943    0.000079967
  14   H   :    0.000047831   -0.000016974   -0.000051788

Difference to translation invariance:
           :   -0.0001174571   -0.0001287846   -0.0000547913

Difference to rotation invariance:
           :    0.0005474614    0.0003214050    0.0003666052

Norm of the cartesian gradient     ...    0.1070234091
RMS gradient                       ...    0.0165140705
MAX gradient                       ...    0.0605274197

-------
TIMINGS
-------

Total SCF gradient time            ...       10.397 sec

One electron gradient       ....       0.090 sec  (  0.9%)
RI-J Coulomb gradient       ....       0.547 sec  (  5.3%)
COSX gradient               ....       6.196 sec  ( 59.6%)
XC gradient                 ....       3.286 sec  ( 31.6%)

Maximum memory used throughout the entire SCFGRAD-calculation: 50.1 MB

                            ***************************************
                            *     ORCA property calculations      *
                            ***************************************

                                    ---------------------
                                    Active property flags
                                    ---------------------
   (+) Dipole Moment


------------------------------------------------------------------------------
                       ORCA ELECTRIC PROPERTIES CALCULATION
------------------------------------------------------------------------------

Dipole Moment Calculation                       ... on
Quadrupole Moment Calculation                   ... off
Polarizability Calculation                      ... off
GBWName                                         ... 22_0_orca.gbw
Electron density                                ... 22_0_orca.scfp
The origin for moment calculation is the CENTER OF MASS  = (-0.343801,  0.117311  0.447199)

-------------
DIPOLE MOMENT
-------------
                                X             Y             Z
Electronic contribution:     -1.20787       0.64152       2.17520
Nuclear contribution   :      1.66792      -0.83448      -2.59799
                        -----------------------------------------
Total Dipole Moment    :      0.46005      -0.19296      -0.42279
                        -----------------------------------------
Magnitude (a.u.)       :      0.65394
Magnitude (Debye)      :      1.66217



--------------------
Rotational spectrum 
--------------------
 
Rotational constants in cm-1:     0.202889     0.062507     0.053820 
Rotational constants in MHz :  6082.445853  1873.916689  1613.481688 

 Dipole components along the rotational axes: 
x,y,z [a.u.] :     0.645556     0.104156     0.006389 
x,y,z [Debye]:     1.640872     0.264744     0.016239 

 

Timings for individual modules:

Sum of individual times         ...      119.365 sec (=   1.989 min)
GTO integral calculation        ...        0.161 sec (=   0.003 min)   0.1 %
SCF iterations                  ...      108.779 sec (=   1.813 min)  91.1 %
SCF Gradient evaluation         ...       10.424 sec (=   0.174 min)   8.7 %
                             ****ORCA TERMINATED NORMALLY****
TOTAL RUN TIME: 0 days 0 hours 1 minutes 59 seconds 512 msec
