      -----------------------------------------------------------      
     |                   =====================                   |     
     |                           x T B                           |     
     |                   =====================                   |     
     |                         S. Grimme                         |     
     |          Mulliken Center for Theoretical Chemistry        |     
     |                    University of Bonn                     |     
      -----------------------------------------------------------      

   * xtb version 6.6.1 (8d0f1dd) compiled by 'conda@1efc2f54142f' on 2023-08-01

   xtb is free software: you can redistribute it and/or modify it under
   the terms of the GNU Lesser General Public License as published by
   the Free Software Foundation, either version 3 of the License, or
   (at your option) any later version.
   
   xtb is distributed in the hope that it will be useful,
   but WITHOUT ANY WARRANTY; without even the implied warranty of
   MERCHANTABILITY or FITNESS FOR A PARTICULAR PURPOSE.  See the
   GNU Lesser General Public License for more details.
   
   Cite this work as:
   * C. Bannwarth, E. Caldeweyher, S. Ehlert, A. Hansen, P. Pracht,
     J. Seibert, S. Spicher, S. Grimme, WIREs Comput. Mol. Sci., 2020, 11,
     e01493. DOI: 10.1002/wcms.1493
   
   for GFN2-xTB:
   * C. Bannwarth, S. Ehlert and S. Grimme., J. Chem. Theory Comput., 2019,
     15, 1652-1671. DOI: 10.1021/acs.jctc.8b01176
   for GFN1-xTB:
   * S. Grimme, C. Bannwarth, P. Shushkov, J. Chem. Theory Comput., 2017,
     13, 1989-2009. DOI: 10.1021/acs.jctc.7b00118
   for GFN0-xTB:
   * P. Pracht, E. Caldeweyher, S. Ehlert, S. Grimme, ChemRxiv, 2019, preprint.
     DOI: 10.26434/chemrxiv.8326202.v1
   for GFN-FF:
   * S. Spicher and S. Grimme, Angew. Chem. Int. Ed., 2020, 59, 15665-15673.
     DOI: 10.1002/anie.202004239
   
   for ALPB and GBSA implicit solvation:
   * S. Ehlert, M. Stahn, S. Spicher, S. Grimme, J. Chem. Theory Comput.,
     2021, 17, 4250-4261. DOI: 10.1021/acs.jctc.1c00471
   
   for DFT-D4:
   * E. Caldeweyher, C. Bannwarth and S. Grimme, J. Chem. Phys., 2017,
     147, 034112. DOI: 10.1063/1.4993215
   * E. Caldeweyher, S. Ehlert, A. Hansen, H. Neugebauer, S. Spicher,
     C. Bannwarth and S. Grimme, J. Chem. Phys., 2019, 150, 154122.
     DOI: 10.1063/1.5090222
   * E. Caldeweyher, J.-M. Mewes, S. Ehlert and S. Grimme, Phys. Chem. Chem. Phys.
     2020, 22, 8499-8512. DOI: 10.1039/D0CP00502A
   
   for sTDA-xTB:
   * S. Grimme and C. Bannwarth, J. Chem. Phys., 2016, 145, 054103.
     DOI: 10.1063/1.4959605
   
   in the mass-spec context:
   * V. Asgeirsson, C. Bauer and S. Grimme, Chem. Sci., 2017, 8, 4879.
     DOI: 10.1039/c7sc00601b
   * J. Koopman and S. Grimme, ACS Omega 2019, 4, 12, 15120-15133.
     DOI: 10.1021/acsomega.9b02011
   
   for metadynamics refer to:
   * S. Grimme, J. Chem. Theory Comput., 2019, 155, 2847-2862
     DOI: 10.1021/acs.jctc.9b00143
   
   for SPH calculations refer to:
   * S. Spicher and S. Grimme, J. Chem. Theory Comput., 2021, 17, 1701-1714
     DOI: 10.1021/acs.jctc.0c01306
   
   with help from (in alphabetical order)
   P. Atkinson, C. Bannwarth, F. Bohle, G. Brandenburg, E. Caldeweyher
   M. Checinski, S. Dohm, S. Ehlert, S. Ehrlich, I. Gerasimov, C. Hölzer
   A. Katbashev, J. Koopman, C. Lavigne, S. Lehtola, F. März, M. Müller,
   F. Musil, H. Neugebauer, J. Pisarek, C. Plett, P. Pracht, F. Pultar,
   J. Seibert, P. Shushkov, S. Spicher, M. Stahn, M. Steiner, T. Strunk,
   J. Stückrath, T. Rose, and J. Unsleber
   
 * started run on 2025/05/23 at 12:04:30.237     

           -------------------------------------------------
          |                Calculation Setup                |
           -------------------------------------------------

          program call               : /gpfs/fs1/home/copan/code/autode-practice/.pixi/envs/default/bin/xtb p0_C5H6O_conf0_opt_xtb.xyz --chrg 0 --uhf 0 --opt
          hostname                   : csed-0029
          coordinate file            : p0_C5H6O_conf0_opt_xtb.xyz
          omp threads                :                     8

   ID    Z sym.   atoms
    1    6 C      1-5
    2    8 O      6
    3    1 H      7-12

           -------------------------------------------------
          |                 G F N 2 - x T B                 |
           -------------------------------------------------

        Reference                      10.1021/acs.jctc.8b01176
      * Hamiltonian:
        H0-scaling (s, p, d)           1.850000    2.230000    2.230000
        zeta-weighting                 0.500000
      * Dispersion:
        s8                             2.700000
        a1                             0.520000
        a2                             5.000000
        s9                             5.000000
      * Repulsion:
        kExp                           1.500000    1.000000
        rExp                           1.000000
      * Coulomb:
        alpha                          2.000000
        third order                    shell-resolved
        anisotropic                    true
        a3                             3.000000
        a5                             4.000000
        cn-shift                       1.200000
        cn-exp                         4.000000
        max-rad                        5.000000


          ...................................................
          :                      SETUP                      :
          :.................................................:
          :  # basis functions                  30          :
          :  # atomic orbitals                  30          :
          :  # shells                           18          :
          :  # electrons                        32          :
          :  max. iterations                   250          :
          :  Hamiltonian                  GFN2-xTB          :
          :  restarted?                      false          :
          :  GBSA solvation                  false          :
          :  PC potential                    false          :
          :  electronic temp.          300.0000000     K    :
          :  accuracy                    1.0000000          :
          :  -> integral cutoff          0.2500000E+02      :
          :  -> integral neglect         0.1000000E-07      :
          :  -> SCF convergence          0.1000000E-05 Eh   :
          :  -> wf. convergence          0.1000000E-03 e    :
          :  Broyden damping             0.4000000          :
          ...................................................

 iter      E             dE          RMSdq      gap      omega  full diag
   1    -17.9387716 -0.179388E+02  0.455E+00    4.47       0.0  T
   2    -17.9625209 -0.237494E-01  0.256E+00    4.36       1.0  T
   3    -17.9627309 -0.209948E-03  0.744E-01    4.22       1.0  T
   4    -17.9632606 -0.529709E-03  0.165E-01    4.35       1.0  T
   5    -17.9633405 -0.799744E-04  0.936E-02    4.36       1.0  T
   6    -17.9633837 -0.431525E-04  0.518E-02    4.36       1.0  T
   7    -17.9633916 -0.789966E-05  0.120E-02    4.36       2.4  T
   8    -17.9633920 -0.453987E-06  0.283E-03    4.36      10.2  T
   9    -17.9633920 -0.405681E-08  0.530E-04    4.36      54.4  T
  10    -17.9633920 -0.703096E-09  0.198E-04    4.36     145.6  T

   *** convergence criteria satisfied after 10 iterations ***

         #    Occupation            Energy/Eh            Energy/eV
      -------------------------------------------------------------
         1        2.0000           -0.7198801             -19.5889
       ...           ...                  ...                  ...
        10        2.0000           -0.5082573             -13.8304
        11        2.0000           -0.4794144             -13.0455
        12        2.0000           -0.4588134             -12.4849
        13        2.0000           -0.4545299             -12.3684
        14        2.0000           -0.4501124             -12.2482
        15        2.0000           -0.3973378             -10.8121
        16        2.0000           -0.3952366             -10.7549 (HOMO)
        17                         -0.2350034              -6.3948 (LUMO)
        18                          0.0335299               0.9124
        19                          0.0463600               1.2615
        20                          0.0703019               1.9130
        21                          0.0712552               1.9390
       ...                                ...                  ...
        30                          0.6354250              17.2908
      -------------------------------------------------------------
                  HL-Gap            0.1602332 Eh            4.3602 eV
             Fermi-level           -0.3151200 Eh           -8.5749 eV

 SCC (total)                   0 d,  0 h,  0 min,  0.006 sec
 SCC setup                      ...        0 min,  0.000 sec (  2.998%)
 Dispersion                     ...        0 min,  0.000 sec (  1.711%)
 classical contributions        ...        0 min,  0.000 sec (  2.648%)
 integral evaluation            ...        0 min,  0.000 sec (  6.232%)
 iterations                     ...        0 min,  0.004 sec ( 71.452%)
 molecular gradient             ...        0 min,  0.001 sec ( 12.125%)
 printout                       ...        0 min,  0.000 sec (  2.437%)

         :::::::::::::::::::::::::::::::::::::::::::::::::::::
         ::                     SUMMARY                     ::
         :::::::::::::::::::::::::::::::::::::::::::::::::::::
         :: total energy             -17.727005274332 Eh    ::
         :: gradient norm              0.125415256359 Eh/a0 ::
         :: HOMO-LUMO gap              4.360166658309 eV    ::
         ::.................................................::
         :: SCC energy               -17.963392045745 Eh    ::
         :: -> isotropic ES            0.018735178326 Eh    ::
         :: -> anisotropic ES          0.002072301957 Eh    ::
         :: -> anisotropic XC          0.002746808212 Eh    ::
         :: -> dispersion             -0.007235494729 Eh    ::
         :: repulsion energy           0.236382612370 Eh    ::
         :: add. restraining           0.000000000000 Eh    ::
         :: total charge               0.000000000000 e     ::
         :::::::::::::::::::::::::::::::::::::::::::::::::::::

      ----------------------------------------------------------- 
     |                   =====================                   |
     |                        A N C O P T                        |
     |                   =====================                   |
     |               Approximate Normal Coordinate               |
     |                Rational Function Optimizer                |
      ----------------------------------------------------------- 

          ...................................................
          :                      SETUP                      :
          :.................................................:
          :   optimization level            normal          :
          :   max. optcycles                   200          :
          :   ANC micro-cycles                  20          :
          :   degrees of freedom                30          :
          :.................................................:
          :   RF solver                   davidson          :
          :   write xtbopt.log                true          :
          :   linear?                        false          :
          :   energy convergence         0.5000000E-05 Eh   :
          :   grad. convergence          0.1000000E-02 Eh/α :
          :   maxmium RF displ.          1.0000000          :
          :   Hlow (freq-cutoff)         0.1000000E-01      :
          :   Hmax (freq-cutoff)         5.0000000          :
          :   S6 in model hess.         20.0000000          :
          ...................................................

generating ANC from model Hessian ...
Using Lindh-Hessian (1995)
 Shifting diagonal of input Hessian by    0.0000000000000000     
 Lowest  eigenvalues of input Hessian
    0.000000    0.000000    0.000000    0.000000    0.000000    0.000000
    0.019320    0.021420    0.047347    0.054234    0.069578    0.085227
    0.086554    0.089944    0.106886    0.128835    0.154207    0.181853
 Highest eigenvalues
    1.402073    1.520706    1.547069    1.666679    1.722217    1.866595


........................................................................
.............................. CYCLE    1 ..............................
........................................................................

 iter      E             dE          RMSdq      gap      omega  full diag
   1    -17.9633920 -0.179634E+02  0.481E-05    4.36       0.0  T
   2    -17.9633920 -0.301625E-11  0.246E-05    4.36    1174.1  T
   3    -17.9633920 -0.309086E-12  0.678E-06    4.36    4255.8  T
     SCC iter.                  ...        0 min,  0.002 sec
     gradient                   ...        0 min,  0.001 sec
 * total energy  :   -17.7270053 Eh     change       -0.4763479E-10 Eh
   gradient norm :     0.1254152 Eh/α   predicted     0.0000000E+00 (-100.00%)
   displ. norm   :     0.2100682 α      lambda       -0.1657448E-01
   maximum displ.:     0.0895593 α      in ANC's #5, #8, #22, ...

........................................................................
.............................. CYCLE    2 ..............................
........................................................................

 iter      E             dE          RMSdq      gap      omega  full diag
   1    -17.9632663 -0.179633E+02  0.339E-01    4.70       0.0  T
   2    -17.9633487 -0.823837E-04  0.215E-01    4.65       1.0  T
   3    -17.9633493 -0.640031E-06  0.380E-02    4.64       1.0  T
   4    -17.9633539 -0.455128E-05  0.153E-02    4.63       1.9  T
   5    -17.9633547 -0.876058E-06  0.980E-03    4.63       2.9  T
   6    -17.9633553 -0.562642E-06  0.389E-03    4.63       7.4  T
   7    -17.9633553 -0.192132E-07  0.106E-03    4.63      27.2  T
   8    -17.9633553 -0.263125E-08  0.414E-04    4.63      69.7  T
   9    -17.9633553 -0.388113E-09  0.139E-04    4.63     208.0  T
     SCC iter.                  ...        0 min,  0.003 sec
     gradient                   ...        0 min,  0.001 sec
 * total energy  :   -17.7376738 Eh     change       -0.1066851E-01 Eh
   gradient norm :     0.0457348 Eh/α   predicted    -0.8652945E-02 ( -18.89%)
   displ. norm   :     0.1243030 α      lambda       -0.2994548E-02
   maximum displ.:     0.0612304 α      in ANC's #2, #5, #9, ...

........................................................................
.............................. CYCLE    3 ..............................
........................................................................

 iter      E             dE          RMSdq      gap      omega  full diag
   1    -17.9611138 -0.179611E+02  0.184E-01    4.74       0.0  T
   2    -17.9611617 -0.478934E-04  0.119E-01    4.68       1.0  T
   3    -17.9611604  0.132635E-05  0.460E-02    4.68       1.0  T
   4    -17.9611665 -0.615273E-05  0.815E-03    4.67       3.5  T
   5    -17.9611668 -0.251742E-06  0.471E-03    4.67       6.1  T
   6    -17.9611669 -0.142427E-06  0.221E-03    4.67      13.0  T
   7    -17.9611670 -0.159918E-07  0.803E-04    4.67      36.0  T
   8    -17.9611670 -0.646072E-09  0.213E-04    4.67     135.7  T
     SCC iter.                  ...        0 min,  0.003 sec
     gradient                   ...        0 min,  0.001 sec
 * total energy  :   -17.7394451 Eh     change       -0.1771316E-02 Eh
   gradient norm :     0.0142534 Eh/α   predicted    -0.1520410E-02 ( -14.16%)
   displ. norm   :     0.0463479 α      lambda       -0.3183863E-03
   maximum displ.:     0.0233413 α      in ANC's #9, #8, #2, ...

........................................................................
.............................. CYCLE    4 ..............................
........................................................................

 iter      E             dE          RMSdq      gap      omega  full diag
   1    -17.9606792 -0.179607E+02  0.804E-02    4.68       0.0  T
   2    -17.9606873 -0.810121E-05  0.489E-02    4.65       1.0  T
   3    -17.9606870  0.301517E-06  0.211E-02    4.65       1.4  T
   4    -17.9606883 -0.134927E-05  0.360E-03    4.65       8.0  T
   5    -17.9606884 -0.335518E-07  0.250E-03    4.65      11.5  T
   6    -17.9606884 -0.559779E-07  0.634E-04    4.65      45.5  T
   7    -17.9606884 -0.866486E-09  0.256E-04    4.65     112.9  T
     SCC iter.                  ...        0 min,  0.002 sec
     gradient                   ...        0 min,  0.001 sec
 * total energy  :   -17.7396479 Eh     change       -0.2027988E-03 Eh
   gradient norm :     0.0057124 Eh/α   predicted    -0.1595364E-03 ( -21.33%)
   displ. norm   :     0.0228442 α      lambda       -0.6636705E-04
   maximum displ.:     0.0140307 α      in ANC's #8, #2, #9, ...

........................................................................
.............................. CYCLE    5 ..............................
........................................................................

 iter      E             dE          RMSdq      gap      omega  full diag
   1    -17.9614288 -0.179614E+02  0.369E-02    4.65       0.0  T
   2    -17.9614305 -0.173482E-05  0.217E-02    4.64       1.3  T
   3    -17.9614305  0.323747E-07  0.100E-02    4.64       2.9  T
   4    -17.9614308 -0.280605E-06  0.161E-03    4.64      17.9  T
   5    -17.9614308 -0.475251E-08  0.116E-03    4.64      24.9  T
   6    -17.9614308 -0.122137E-07  0.262E-04    4.64     110.3  T
   7    -17.9614308 -0.167503E-09  0.954E-05    4.64     302.6  T
     SCC iter.                  ...        0 min,  0.002 sec
     gradient                   ...        0 min,  0.001 sec
 * total energy  :   -17.7396867 Eh     change       -0.3882326E-04 Eh
   gradient norm :     0.0016876 Eh/α   predicted    -0.3319900E-04 ( -14.49%)
   displ. norm   :     0.0079937 α      lambda       -0.5404030E-05
   maximum displ.:     0.0039985 α      in ANC's #8, #17, #7, ...

........................................................................
.............................. CYCLE    6 ..............................
........................................................................

 iter      E             dE          RMSdq      gap      omega  full diag
   1    -17.9620404 -0.179620E+02  0.117E-02    4.64       0.0  T
   2    -17.9620405 -0.827667E-07  0.677E-03    4.64       4.3  T
   3    -17.9620404  0.288553E-07  0.293E-03    4.64       9.8  T
   4    -17.9620405 -0.376812E-07  0.931E-04    4.64      31.0  T
   5    -17.9620405 -0.727403E-08  0.274E-04    4.64     105.5  T
     SCC iter.                  ...        0 min,  0.002 sec
     gradient                   ...        0 min,  0.001 sec
 * total energy  :   -17.7396898 Eh     change       -0.3040956E-05 Eh
   gradient norm :     0.0006118 Eh/α   predicted    -0.2702474E-05 ( -11.13%)
   displ. norm   :     0.0036704 α      lambda       -0.6488992E-06
   maximum displ.:     0.0023108 α      in ANC's #1, #8, #10, ...

   *** GEOMETRY OPTIMIZATION CONVERGED AFTER 6 ITERATIONS ***

------------------------------------------------------------------------
 total energy gain   :        -0.0126845 Eh       -7.9596 kcal/mol
 total RMSD          :         0.0991579 a0        0.0525 Å
 total power (kW/mol):        -5.5505191 (step)-1378.2341 (real)
------------------------------------------------------------------------

 ANCopt (total)                0 d,  0 h,  0 min,  0.024 sec
 optimizer setup                ...        0 min,  0.000 sec (  0.480%)
 model hessian                  ...        0 min,  0.002 sec (  8.500%)
 ANC generation                 ...        0 min,  0.000 sec (  1.164%)
 coordinate transformation      ...        0 min,  0.000 sec (  0.097%)
 single point calculation       ...        0 min,  0.020 sec ( 81.931%)
 optimization log               ...        0 min,  0.000 sec (  1.717%)
 hessian update                 ...        0 min,  0.000 sec (  0.282%)
 rational function              ...        0 min,  0.001 sec (  2.349%)

================
 final structure:
================
12
 xtb: 6.6.1 (8d0f1dd)
C            1.07643095540597       -0.77767985323068       -0.18379474186768
C            1.23104713538422        0.52990681835015       -0.02712084030588
C           -0.20963572404781        1.02332834111018       -0.19527156311376
C           -0.95326927859543        0.02722709146341        0.71623867089673
C           -0.43408420744561       -0.87342758573193       -0.42186964816966
O           -0.64296489565105        0.23412137944731       -1.32337412866270
H            1.77127964230375       -1.59142718982681       -0.17410277144270
H            2.09384075762918        1.13669926089753        0.15296526219877
H           -0.42803189295818        2.08326755541135       -0.24973073431833
H           -2.03248319839135        0.15730802879168        0.69544505000601
H           -0.58360481344754       -0.13703887139755        1.72540582666138
H           -0.88862448018615       -1.81238497528464       -0.71499038188217

 Bond Distances (Angstroems)
 ---------------------------
C1-C2=1.3260         C1-C5=1.5322         C1-H7=1.0701         C2-C1=1.3260         C2-C3=1.5321         C2-H8=1.0701         
C3-C2=1.5321         C3-C4=1.5414         C3-C5=1.9234         C3-O6=1.4433         C3-H9=1.0836         C4-C3=1.5414         
C4-C5=1.5414         C4-H10=1.0872        C4-H11=1.0872        C5-C1=1.5322         C5-C3=1.9234         C5-C4=1.5414         
C5-O6=1.4433         C5-H12=1.0836        O6-C3=1.4433         O6-C5=1.4433         H7-C1=1.0701         H8-C2=1.0701         
H9-C3=1.0836         H10-C4=1.0872        H11-C4=1.0872        H12-C5=1.0836        
 C  H  Rav=1.0803 sigma=0.0074  Rmin=1.0701  Rmax=1.0872     6
 C  C  Rav=1.5661 sigma=0.1774  Rmin=1.3260  Rmax=1.9234     6
 O  C  Rav=1.4433 sigma=0.0000  Rmin=1.4433  Rmax=1.4433     2

 selected bond angles (degree)
 --------------------
C5-C1-C2=101.24                H7-C1-C2=132.31                H7-C1-C5=126.44                C3-C2-C1=101.24                
H8-C2-C1=132.31                H8-C2-C3=126.44                C4-C3-C2=100.41                C5-C3-C2= 78.76                
C5-C3-C4= 51.40                O6-C3-C2=101.07                O6-C3-C4= 87.94                O6-C3-C5= 48.22                
H9-C3-C2=120.67                H9-C3-C4=124.37                H9-C3-C5=159.26                H9-C3-O6=115.79                
C5-C4-C3= 77.20                H10-C4-C3=112.97               H10-C4-C5=112.96               H11-C4-C3=118.85               
H11-C4-C5=118.85               H11-C4-H10=111.92              C3-C5-C1= 78.76                C4-C5-C1=100.42                
C4-C5-C3= 51.40                O6-C5-C1=101.06                O6-C5-C3= 48.22                O6-C5-C4= 87.94                
H12-C5-C1=120.65               H12-C5-C3=159.28               H12-C5-C4=124.38               H12-C5-O6=115.80               
C5-O6-C3= 83.57                

 selected dihedral angles (degree)
 ---------------------------------
C3-C2-C1-C5=359.97            C3-C2-C1-H7=179.09            H8-C2-C1-C5=180.87            H8-C2-C1-H7=  0.00            
C4-C3-C2-C1= 46.92            C4-C3-C2-H8=226.10            C5-C3-C2-C1=  0.00            C5-C3-C2-H8=179.20            
O6-C3-C2-C1=317.00            O6-C3-C2-H8=136.18            H9-C3-C2-C1=187.85            H9-C3-C2-H8=  7.02            
C5-C4-C3-C2=293.59            C5-C4-C3-O6= 34.47            C5-C4-C3-H9=154.66            H10-C4-C3-C2=183.82           
H10-C4-C3-C5=250.23           H10-C4-C3-O6=284.70           H10-C4-C3-H9= 44.89           H11-C4-C3-C2= 49.68           
H11-C4-C3-C5=116.09           H11-C4-C3-O6=150.56           H11-C4-C3-H9=270.75           C3-C5-C1-C2=  0.00            
C3-C5-C1-H7=180.83            C4-C5-C1-C2=313.12            C4-C5-C1-H7=133.93            O6-C5-C1-C2= 43.05            
O6-C5-C1-H7=223.86            H12-C5-C1-C2=172.19           H12-C5-C1-H7=353.01           C1-C5-C4-C3= 66.39            
C1-C5-C4-H10=176.17           C1-C5-C4-H11=310.31           C3-C5-C4-H10=109.78           C3-C5-C4-H11=243.91           
O6-C5-C4-C3=325.53            O6-C5-C4-H10= 75.31           O6-C5-C4-H11=209.44           H12-C5-C4-C3=205.32           
H12-C5-C4-H10=315.10          H12-C5-C4-H11= 89.23          C5-O6-C3-C2= 63.82            C5-O6-C3-C4=323.62            
C5-O6-C3-H9=196.02            C3-O6-C5-C1=296.17            C3-O6-C5-C4= 36.38            C3-O6-C5-H12=164.00           
           -------------------------------------------------
          |                Final Singlepoint                |
           -------------------------------------------------

          ...................................................
          :                      SETUP                      :
          :.................................................:
          :  # basis functions                  30          :
          :  # atomic orbitals                  30          :
          :  # shells                           18          :
          :  # electrons                        32          :
          :  max. iterations                   250          :
          :  Hamiltonian                  GFN2-xTB          :
          :  restarted?                      false          :
          :  GBSA solvation                  false          :
          :  PC potential                    false          :
          :  electronic temp.          300.0000000     K    :
          :  accuracy                    1.0000000          :
          :  -> integral cutoff          0.2500000E+02      :
          :  -> integral neglect         0.1000000E-07      :
          :  -> SCF convergence          0.1000000E-05 Eh   :
          :  -> wf. convergence          0.1000000E-03 e    :
          :  Broyden damping             0.4000000          :
          ...................................................

 iter      E             dE          RMSdq      gap      omega  full diag
   1    -17.9620405 -0.179620E+02  0.844E-05    4.64       0.0  T
   2    -17.9620405 -0.269651E-11  0.490E-05    4.64     589.7  T
   3    -17.9620405  0.543920E-11  0.301E-05    4.64     959.0  T

   *** convergence criteria satisfied after 3 iterations ***

         #    Occupation            Energy/Eh            Energy/eV
      -------------------------------------------------------------
         1        2.0000           -0.7074014             -19.2494
       ...           ...                  ...                  ...
        10        2.0000           -0.5071661             -13.8007
        11        2.0000           -0.4835602             -13.1583
        12        2.0000           -0.4576925             -12.4544
        13        2.0000           -0.4558180             -12.4034
        14        2.0000           -0.4511988             -12.2777
        15        2.0000           -0.4050810             -11.0228
        16        2.0000           -0.4016767             -10.9302 (HOMO)
        17                         -0.2313152              -6.2944 (LUMO)
        18                         -0.0006748              -0.0184
        19                         -0.0001289              -0.0035
        20                          0.0341186               0.9284
        21                          0.0465988               1.2680
       ...                                ...                  ...
        30                          0.6970530              18.9678
      -------------------------------------------------------------
                  HL-Gap            0.1703614 Eh            4.6358 eV
             Fermi-level           -0.3164959 Eh           -8.6123 eV

 SCC (total)                   0 d,  0 h,  0 min,  0.002 sec
 SCC setup                      ...        0 min,  0.000 sec (  3.296%)
 Dispersion                     ...        0 min,  0.000 sec (  1.900%)
 classical contributions        ...        0 min,  0.000 sec (  0.430%)
 integral evaluation            ...        0 min,  0.000 sec (  9.583%)
 iterations                     ...        0 min,  0.001 sec ( 55.009%)
 molecular gradient             ...        0 min,  0.001 sec ( 23.605%)
 printout                       ...        0 min,  0.000 sec (  5.380%)

         :::::::::::::::::::::::::::::::::::::::::::::::::::::
         ::                     SUMMARY                     ::
         :::::::::::::::::::::::::::::::::::::::::::::::::::::
         :: total energy             -17.739689761220 Eh    ::
         :: gradient norm              0.000610436332 Eh/a0 ::
         :: HOMO-LUMO gap              4.635770881927 eV    ::
         ::.................................................::
         :: SCC energy               -17.962040468661 Eh    ::
         :: -> isotropic ES            0.021510255460 Eh    ::
         :: -> anisotropic ES          0.001709912789 Eh    ::
         :: -> anisotropic XC          0.005510961339 Eh    ::
         :: -> dispersion             -0.007163785259 Eh    ::
         :: repulsion energy           0.222346034366 Eh    ::
         :: add. restraining           0.000000000000 Eh    ::
         :: total charge               0.000000000000 e     ::
         :::::::::::::::::::::::::::::::::::::::::::::::::::::

           -------------------------------------------------
          |                Property Printout                |
           -------------------------------------------------

    * Orbital Energies and Occupations

         #    Occupation            Energy/Eh            Energy/eV
      -------------------------------------------------------------
         1        2.0000           -0.7074014             -19.2494
       ...           ...                  ...                  ...
         4        2.0000           -0.6255403             -17.0218
         5        2.0000           -0.5748365             -15.6421
         6        2.0000           -0.5667139             -15.4211
         7        2.0000           -0.5546230             -15.0921
         8        2.0000           -0.5431258             -14.7792
         9        2.0000           -0.5264285             -14.3248
        10        2.0000           -0.5071661             -13.8007
        11        2.0000           -0.4835602             -13.1583
        12        2.0000           -0.4576925             -12.4544
        13        2.0000           -0.4558180             -12.4034
        14        2.0000           -0.4511988             -12.2777
        15        2.0000           -0.4050810             -11.0228
        16        2.0000           -0.4016767             -10.9302 (HOMO)
        17                         -0.2313152              -6.2944 (LUMO)
        18                         -0.0006748              -0.0184
        19                         -0.0001289              -0.0035
        20                          0.0341186               0.9284
        21                          0.0465988               1.2680
        22                          0.0633246               1.7232
        23                          0.0992505               2.7007
        24                          0.1475325               4.0146
        25                          0.2039815               5.5506
        26                          0.2474708               6.7340
        27                          0.2616192               7.1190
       ...                                ...                  ...
        30                          0.6970530              18.9678
      -------------------------------------------------------------
                  HL-Gap            0.1703614 Eh            4.6358 eV
             Fermi-level           -0.3164959 Eh           -8.6123 eV

     #   Z          covCN         q      C6AA      α(0)
     1   6 C        3.039    -0.043    29.035     8.838
     2   6 C        3.039    -0.043    29.035     8.838
     3   6 C        4.491     0.114    18.640     6.131
     4   6 C        3.927    -0.064    21.665     6.615
     5   6 C        4.491     0.114    18.640     6.131
     6   8 O        1.776    -0.333    19.559     5.972
     7   1 H        0.927     0.047     2.352     2.398
     8   1 H        0.927     0.047     2.352     2.398
     9   1 H        0.925     0.039     2.463     2.454
    10   1 H        0.925     0.051     2.308     2.376
    11   1 H        0.925     0.032     2.557     2.500
    12   1 H        0.925     0.039     2.463     2.454

 Mol. C6AA /au·bohr⁶  :       1423.150832
 Mol. C8AA /au·bohr⁸  :      32873.316680
 Mol. α(0) /au        :         57.106839


Wiberg/Mayer (AO) data.
largest (>0.10) Wiberg bond orders for each atom

 ---------------------------------------------------------------------------
     #   Z sym  total        # sym  WBO       # sym  WBO       # sym  WBO
 ---------------------------------------------------------------------------
     1   6 C    3.984 --     2 C    1.955     5 C    0.980     7 H    0.972
     2   6 C    3.984 --     1 C    1.955     3 C    0.980     8 H    0.972
     3   6 C    3.942 --     2 C    0.980     4 C    0.977     9 H    0.969
                             6 O    0.957
     4   6 C    3.986 --    11 H    0.980    10 H    0.978     5 C    0.977
                             3 C    0.977
     5   6 C    3.942 --     1 C    0.980     4 C    0.977    12 H    0.969
                             6 O    0.957
     6   8 O    2.026 --     5 C    0.957     3 C    0.957
     7   1 H    0.998 --     1 C    0.972
     8   1 H    0.998 --     2 C    0.972
     9   1 H    0.998 --     3 C    0.969
    10   1 H    0.997 --     4 C    0.978
    11   1 H    0.999 --     4 C    0.980
    12   1 H    0.998 --     5 C    0.969
 ---------------------------------------------------------------------------

Topologies differ in total number of bonds
Writing topology from bond orders to xtbtopo.mol

molecular dipole:
                 x           y           z       tot (Debye)
 q only:        0.211      -0.112       0.728
   full:        0.200      -0.119       0.798       2.112
molecular quadrupole (traceless):
                xx          xy          yy          xz          yz          zz
 q only:        0.856       0.385       2.457      -1.492       0.884      -3.313
  q+dip:        1.757       0.477       4.041      -1.522       1.383      -5.797
   full:        1.205       0.477       3.389      -1.642       1.172      -4.594

           -------------------------------------------------
          |                Geometry Summary                 |
           -------------------------------------------------

      molecular mass/u    :       82.1007289
   center of mass at/Å    :       -0.0221889       0.0332814      -0.2566339
  moments of inertia/u·Å² :        0.7996244E+02   0.1016314E+03   0.1106624E+03
rotational constants/cm⁻¹ :        0.2108194E+00   0.1658703E+00   0.1523339E+00

 * 13 selected distances

     #   Z          #   Z                                           value/Å
     1   6 C        2   6 C                                       1.3259850
     2   6 C        3   6 C                                       1.5320924
     3   6 C        4   6 C                                       1.5414473 (max)
     1   6 C        5   6 C                                       1.5321566
     4   6 C        5   6 C                                       1.5414354
     3   6 C        6   8 O                                       1.4433425
     5   6 C        6   8 O                                       1.4432625
     1   6 C        7   1 H                                       1.0700905
     2   6 C        8   1 H                                       1.0700659 (min)
     3   6 C        9   1 H                                       1.0835747
     4   6 C       10   1 H                                       1.0872241
     4   6 C       11   1 H                                       1.0872229
     5   6 C       12   1 H                                       1.0835902

 * 3 distinct bonds (by element types)

   Z      Z             #   av. dist./Å        max./Å        min./Å
   1 H    6 C           6     1.0802947     1.0872241     1.0700659
   6 C    6 C           5     1.4946233     1.5414473     1.3259850
   6 C    8 O           2     1.4433025     1.4433425     1.4432625


optimized geometry written to: xtbopt.xyz


           -------------------------------------------------
          | TOTAL ENERGY              -17.739689761220 Eh   |
          | GRADIENT NORM               0.000610436332 Eh/α |
          | HOMO-LUMO GAP               4.635770881927 eV   |
           -------------------------------------------------

------------------------------------------------------------------------
 * finished run on 2025/05/23 at 12:04:30.277     
------------------------------------------------------------------------
 total:
 * wall-time:     0 d,  0 h,  0 min,  0.040 sec
 *  cpu-time:     0 d,  0 h,  0 min,  0.584 sec
 * ratio c/w:    14.534 speedup
 SCF:
 * wall-time:     0 d,  0 h,  0 min,  0.006 sec
 *  cpu-time:     0 d,  0 h,  0 min,  0.092 sec
 * ratio c/w:    14.585 speedup
 ANC optimizer:
 * wall-time:     0 d,  0 h,  0 min,  0.028 sec
 *  cpu-time:     0 d,  0 h,  0 min,  0.415 sec
 * ratio c/w:    15.068 speedup

