
                                 *****************
                                 * O   R   C   A *
                                 *****************

                                            #,                                       
                                            ###                                      
                                            ####                                     
                                            #####                                    
                                            ######                                   
                                           ########,                                 
                                     ,,################,,,,,                         
                               ,,#################################,,                 
                          ,,##########################################,,             
                       ,#########################################, ''#####,          
                    ,#############################################,,   '####,        
                  ,##################################################,,,,####,       
                ,###########''''           ''''###############################       
              ,#####''   ,,,,##########,,,,          '''####'''          '####       
            ,##' ,,,,###########################,,,                        '##       
           ' ,,###''''                  '''############,,,                           
         ,,##''                                '''############,,,,        ,,,,,,###''
      ,#''                                            '''#######################'''  
     '                                                          ''''####''''         
             ,#######,   #######,   ,#######,      ##                                
            ,#'     '#,  ##    ##  ,#'     '#,    #''#        ######   ,####,        
            ##       ##  ##   ,#'  ##            #'  '#       #        #'  '#        
            ##       ##  #######   ##           ,######,      #####,   #    #        
            '#,     ,#'  ##    ##  '#,     ,#' ,#      #,         ##   #,  ,#        
             '#######'   ##     ##  '#######'  #'      '#     #####' # '####'        



                  #######################################################
                  #                        -***-                        #
                  #          Department of theory and spectroscopy      #
                  #    Directorship and core code : Frank Neese         #
                  #        Max Planck Institute fuer Kohlenforschung    #
                  #                Kaiser Wilhelm Platz 1               #
                  #                 D-45470 Muelheim/Ruhr               #
                  #                      Germany                        #
                  #                                                     #
                  #                  All rights reserved                #
                  #                        -***-                        #
                  #######################################################


                         Program Version 5.0.4 -  RELEASE  -


 With contributions from (in alphabetic order):
   Daniel Aravena         : Magnetic Suceptibility
   Michael Atanasov       : Ab Initio Ligand Field Theory (pilot matlab implementation)
   Alexander A. Auer      : GIAO ZORA, VPT2 properties, NMR spectrum
   Ute Becker             : Parallelization
   Giovanni Bistoni       : ED, misc. LED, open-shell LED, HFLD
   Martin Brehm           : Molecular dynamics
   Dmytro Bykov           : SCF Hessian
   Vijay G. Chilkuri      : MRCI spin determinant printing, contributions to CSF-ICE
   Dipayan Datta          : RHF DLPNO-CCSD density
   Achintya Kumar Dutta   : EOM-CC, STEOM-CC
   Dmitry Ganyushin       : Spin-Orbit,Spin-Spin,Magnetic field MRCI
   Miquel Garcia          : C-PCM and meta-GGA Hessian, CC/C-PCM, Gaussian charge scheme
   Yang Guo               : DLPNO-NEVPT2, F12-NEVPT2, CIM, IAO-localization
   Andreas Hansen         : Spin unrestricted coupled pair/coupled cluster methods
   Benjamin Helmich-Paris : MC-RPA, TRAH-SCF, COSX integrals
   Lee Huntington         : MR-EOM, pCC
   Robert Izsak           : Overlap fitted RIJCOSX, COSX-SCS-MP3, EOM
   Marcus Kettner         : VPT2
   Christian Kollmar      : KDIIS, OOCD, Brueckner-CCSD(T), CCSD density, CASPT2, CASPT2-K
   Simone Kossmann        : Meta GGA functionals, TD-DFT gradient, OOMP2, MP2 Hessian
   Martin Krupicka        : Initial AUTO-CI
   Lucas Lang             : DCDCAS
   Marvin Lechner         : AUTO-CI (C++ implementation), FIC-MRCC
   Dagmar Lenk            : GEPOL surface, SMD
   Dimitrios Liakos       : Extrapolation schemes; Compound Job, initial MDCI parallelization
   Dimitrios Manganas     : Further ROCIS development; embedding schemes
   Dimitrios Pantazis     : SARC Basis sets
   Anastasios Papadopoulos: AUTO-CI, single reference methods and gradients
   Taras Petrenko         : DFT Hessian,TD-DFT gradient, ASA, ECA, R-Raman, ABS, FL, XAS/XES, NRVS
   Peter Pinski           : DLPNO-MP2, DLPNO-MP2 Gradient
   Christoph Reimann      : Effective Core Potentials
   Marius Retegan         : Local ZFS, SOC
   Christoph Riplinger    : Optimizer, TS searches, QM/MM, DLPNO-CCSD(T), (RO)-DLPNO pert. Triples
   Tobias Risthaus        : Range-separated hybrids, TD-DFT gradient, RPA, STAB
   Michael Roemelt        : Original ROCIS implementation
   Masaaki Saitow         : Open-shell DLPNO-CCSD energy and density
   Barbara Sandhoefer     : DKH picture change effects
   Avijit Sen             : IP-ROCIS
   Kantharuban Sivalingam : CASSCF convergence, NEVPT2, FIC-MRCI
   Bernardo de Souza      : ESD, SOC TD-DFT
   Georgi Stoychev        : AutoAux, RI-MP2 NMR, DLPNO-MP2 response
   Willem Van den Heuvel  : Paramagnetic NMR
   Boris Wezisla          : Elementary symmetry handling
   Frank Wennmohs         : Technical directorship


 We gratefully acknowledge several colleagues who have allowed us to
 interface, adapt or use parts of their codes:
   Stefan Grimme, W. Hujo, H. Kruse, P. Pracht,  : VdW corrections, initial TS optimization,
                  C. Bannwarth, S. Ehlert          DFT functionals, gCP, sTDA/sTD-DF
   Ed Valeev, F. Pavosevic, A. Kumar             : LibInt (2-el integral package), F12 methods
   Garnet Chan, S. Sharma, J. Yang, R. Olivares  : DMRG
   Ulf Ekstrom                                   : XCFun DFT Library
   Mihaly Kallay                                 : mrcc  (arbitrary order and MRCC methods)
   Jiri Pittner, Ondrej Demel                    : Mk-CCSD
   Frank Weinhold                                : gennbo (NPA and NBO analysis)
   Christopher J. Cramer and Donald G. Truhlar   : smd solvation model
   Lars Goerigk                                  : TD-DFT with DH, B97 family of functionals
   V. Asgeirsson, H. Jonsson                     : NEB implementation
   FAccTs GmbH                                   : IRC, NEB, NEB-TS, DLPNO-Multilevel, CI-OPT
                                                   MM, QMMM, 2- and 3-layer-ONIOM, Crystal-QMMM,
                                                   LR-CPCM, SF, NACMEs, symmetry and pop. for TD-DFT,
                                                   nearIR, NL-DFT gradient (VV10), updates on ESD,
                                                   ML-optimized integration grids
   S Lehtola, MJT Oliveira, MAL Marques          : LibXC Library
   Liviu Ungur et al                             : ANISO software


 Your calculation uses the libint2 library for the computation of 2-el integrals
 For citations please refer to: http://libint.valeyev.net

 Your ORCA version has been built with support for libXC version: 5.1.0
 For citations please refer to: https://tddft.org/programs/libxc/

 This ORCA versions uses:
   CBLAS   interface :  Fast vector & matrix operations
   LAPACKE interface :  Fast linear algebra routines
   SCALAPACK package :  Parallel linear algebra routines
   Shared memory     :  Shared parallel matrices
   BLAS/LAPACK       :  OpenBLAS 0.3.15  USE64BITINT DYNAMIC_ARCH NO_AFFINITY SkylakeX SINGLE_THREADED
        Core in use  :  SkylakeX
   Copyright (c) 2011-2014, The OpenBLAS Project


Your calculation utilizes the atom-pairwise dispersion correction
with the Becke-Johnson damping scheme (D3BJ)
Cite in your paper:
S.Grimme, S.Ehrlich, L.Goerigk, J Comput Chem, (2011), 32, 1456–1465 
S.Grimme, J.Antony, S.Ehrlich and H.Krieg, J.Chem.Phys., 132, (2010), 154104 
   

================================================================================

----- Orbital basis set information -----
Your calculation utilizes the basis: def2-SVP
   F. Weigend and R. Ahlrichs, Phys. Chem. Chem. Phys. 7, 3297 (2005).

----- AuxJ basis set information -----
Your calculation utilizes the auxiliary basis: def2/J
   F. Weigend, Phys. Chem. Chem. Phys. 8, 1057 (2006).

================================================================================
                                        WARNINGS
                       Please study these warnings very carefully!
================================================================================


WARNING: your system is open-shell and RHF/RKS was chosen
  ===> : WILL SWITCH to UHF/UKS


WARNING: Geometry Optimization
  ===> : Switching off AutoStart
         For restart on a previous wavefunction, please use MOREAD

INFO   : the flag for use of the SHARK integral package has been found!

================================================================================
                                       INPUT FILE
================================================================================
NAME = r0_C5H7O2_conf1_opt_orca.inp
|  1> ! LooseOpt PBE0 RIJCOSX D3BJ def2-SVP def2/J 
|  2> %geom MaxIter 10 end
|  3> %output 
|  4> xyzfile=True 
|  5> end 
|  6> %scf 
|  7> maxiter 250 
|  8> end
|  9> %output
| 10> Print[P_Hirshfeld] = 1
| 11> end
| 12> % maxcore
| 13> 4000
| 14> %pal nprocs 8
| 15> end
| 16> *xyz 0 2
| 17> O   -2.59336633  -0.52874523   0.71420397 
| 18> O   -1.35377423   0.06691175   1.11930204 
| 19> C   -0.59250018   0.39776819  -0.02288531 
| 20> C    0.57424545   1.21540636   0.43452653 
| 21> C    1.75207190   0.61873068   0.04399032 
| 22> C    1.51551688  -0.54893203  -0.64428935 
| 23> C    0.05288538  -0.81831492  -0.72639702 
| 24> H   -3.04670099  -0.62960921   1.56061432 
| 25> H   -1.24320743   0.95988288  -0.71214331 
| 26> H    0.45690987   2.11330032   1.00806213 
| 27> H    2.72916229   1.02141461   0.24809229 
| 28> H    2.25494497  -1.20320949  -1.06634322 
| 29> H   -0.28794843  -0.92781567  -1.75836713 
| 30> H   -0.21823915  -1.73668824  -0.19836626 
| 31> *
| 32> 
| 33>                          ****END OF INPUT****
================================================================================

                       *****************************
                       * Geometry Optimization Run *
                       *****************************

Geometry optimization settings:
Update method            Update   .... BFGS
Choice of coordinates    CoordSys .... Z-matrix Internals
Initial Hessian          InHess   .... Almoef's Model

Convergence Tolerances:
Energy Change            TolE     ....  3.0000e-05 Eh
Max. Gradient            TolMAXG  ....  2.0000e-03 Eh/bohr
RMS Gradient             TolRMSG  ....  5.0000e-04 Eh/bohr
Max. Displacement        TolMAXD  ....  1.0000e-02 bohr
RMS Displacement         TolRMSD  ....  7.0000e-03 bohr
Strict Convergence                ....  False
------------------------------------------------------------------------------
                        ORCA OPTIMIZATION COORDINATE SETUP
------------------------------------------------------------------------------

The optimization will be done in new redundant internal coordinates
Making redundant internal coordinates   ...  (new redundants) done
Evaluating the initial hessian          ...  (Almloef) done
Evaluating the coordinates              ...  done
Calculating the B-matrix                .... done
Calculating the G-matrix                .... done
Diagonalizing the G-matrix              .... done
The first mode is                       ....   34
The number of degrees of freedom        ....   36

    -----------------------------------------------------------------
                    Redundant Internal Coordinates


    -----------------------------------------------------------------
         Definition                    Initial Value    Approx d2E/dq
    -----------------------------------------------------------------
      1. B(O   1,O   0)                  1.4337         0.426864   
      2. B(C   2,O   1)                  1.4119         0.516249   
      3. B(C   3,C   2)                  1.4963         0.422736   
      4. B(C   4,C   3)                  1.3769         0.655633   
      5. B(C   5,C   4)                  1.3759         0.657993   
      6. B(C   6,C   5)                  1.4895         0.433509   
      7. B(C   6,C   2)                  1.5461         0.352169   
      8. B(H   7,O   0)                  0.9655         0.509647   
      9. B(H   8,C   2)                  1.1020         0.344533   
     10. B(H   9,C   3)                  1.0719         0.384888   
     11. B(H  10,C   4)                  1.0763         0.378625   
     12. B(H  11,C   5)                  1.0738         0.382236   
     13. B(H  12,C   6)                  1.0923         0.357070   
     14. B(H  13,C   6)                  1.0935         0.355504   
     15. A(O   1,O   0,H   7)          101.6349         0.344016   
     16. A(O   0,O   1,C   2)          109.5697         0.385739   
     17. A(C   3,C   2,H   8)          111.8931         0.328588   
     18. A(O   1,C   2,H   8)          107.8855         0.337611   
     19. A(C   3,C   2,C   6)          104.0877         0.367394   
     20. A(O   1,C   2,C   6)          114.1328         0.377878   
     21. A(O   1,C   2,C   3)          107.5274         0.390070   
     22. A(C   6,C   2,H   8)          111.2900         0.318886   
     23. A(C   4,C   3,H   9)          127.4753         0.360326   
     24. A(C   2,C   3,H   9)          122.4076         0.334670   
     25. A(C   2,C   3,C   4)          110.0906         0.409443   
     26. A(C   3,C   4,H  10)          124.0997         0.359320   
     27. A(C   3,C   4,C   5)          111.2586         0.443194   
     28. A(C   5,C   4,H  10)          124.6407         0.359540   
     29. A(C   4,C   5,C   6)          110.4802         0.411535   
     30. A(C   6,C   5,H  11)          122.9799         0.335687   
     31. A(C   4,C   5,H  11)          126.5368         0.360122   
     32. A(C   5,C   6,H  13)          111.6381         0.331672   
     33. A(C   2,C   6,H  13)          109.7167         0.320523   
     34. A(C   5,C   6,H  12)          112.1242         0.331914   
     35. A(C   2,C   6,H  12)          112.2407         0.320753   
     36. A(H  12,C   6,H  13)          107.1367         0.289869   
     37. A(C   2,C   6,C   5)          104.0383         0.368984   
     38. D(C   2,O   1,O   0,H   7)   -174.9554         0.013509   
     39. D(C   6,C   2,O   1,O   0)    -74.3896         0.021118   
     40. D(C   3,C   2,O   1,O   0)    170.7003         0.021118   
     41. D(H   8,C   2,O   1,O   0)     49.8493         0.021118   
     42. D(C   4,C   3,C   2,C   6)      1.4210         0.013209   
     43. D(C   4,C   3,C   2,O   1)    122.8412         0.013209   
     44. D(H   9,C   3,C   2,C   6)   -176.8348         0.013209   
     45. D(H   9,C   3,C   2,O   1)    -55.4145         0.013209   
     46. D(H   9,C   3,C   2,H   8)     62.8808         0.013209   
     47. D(C   4,C   3,C   2,H   8)   -118.8634         0.013209   
     48. D(C   5,C   4,C   3,C   2)     -0.1885         0.029966   
     49. D(C   5,C   4,C   3,H   9)    177.9559         0.029966   
     50. D(H  10,C   4,C   3,H   9)     -2.4023         0.029966   
     51. D(H  10,C   4,C   3,C   2)    179.4532         0.029966   
     52. D(C   6,C   5,C   4,C   3)     -1.2199         0.030198   
     53. D(H  11,C   5,C   4,H  10)     -0.2282         0.030198   
     54. D(H  11,C   5,C   4,C   3)    179.4112         0.030198   
     55. D(C   6,C   5,C   4,H  10)    179.1407         0.030198   
     56. D(H  12,C   6,C   5,C   4)    123.5457         0.013875   
     57. D(C   2,C   6,C   5,H  11)   -178.5800         0.013875   
     58. D(C   2,C   6,C   5,C   4)      2.0245         0.013875   
     59. D(H  13,C   6,C   2,C   3)    117.5643         0.009983   
     60. D(H  13,C   6,C   2,O   1)      0.6494         0.009983   
     61. D(H  12,C   6,C   2,H   8)     -2.7524         0.009983   
     62. D(H  12,C   6,C   2,C   3)   -123.4421         0.009983   
     63. D(H  13,C   6,C   2,H   8)   -121.7460         0.009983   
     64. D(H  12,C   6,C   2,O   1)    119.6430         0.009983   
     65. D(C   5,C   6,C   2,H   8)    118.6913         0.009983   
     66. D(C   5,C   6,C   2,C   3)     -1.9984         0.009983   
     67. D(H  12,C   6,C   5,H  11)    -57.0588         0.013875   
     68. D(C   5,C   6,C   2,O   1)   -118.9134         0.009983   
     69. D(H  13,C   6,C   5,H  11)     63.1706         0.013875   
     70. D(H  13,C   6,C   5,C   4)   -116.2249         0.013875   
    -----------------------------------------------------------------

Number of atoms                         .... 14
Number of degrees of freedom            .... 70

         *************************************************************
         *                GEOMETRY OPTIMIZATION CYCLE   1            *
         *************************************************************
---------------------------------
CARTESIAN COORDINATES (ANGSTROEM)
---------------------------------
  O     -2.593366   -0.528745    0.714204
  O     -1.353774    0.066912    1.119302
  C     -0.592500    0.397768   -0.022885
  C      0.574245    1.215406    0.434527
  C      1.752072    0.618731    0.043990
  C      1.515517   -0.548932   -0.644289
  C      0.052885   -0.818315   -0.726397
  H     -3.046701   -0.629609    1.560614
  H     -1.243207    0.959883   -0.712143
  H      0.456910    2.113300    1.008062
  H      2.729162    1.021415    0.248092
  H      2.254945   -1.203209   -1.066343
  H     -0.287948   -0.927816   -1.758367
  H     -0.218239   -1.736688   -0.198366

----------------------------
CARTESIAN COORDINATES (A.U.)
----------------------------
  NO LB      ZA    FRAG     MASS         X           Y           Z
   0 O     8.0000    0    15.999   -4.900752   -0.999184    1.349650
   1 O     8.0000    0    15.999   -2.558263    0.126445    2.115174
   2 C     6.0000    0    12.011   -1.119663    0.751673   -0.043247
   3 C     6.0000    0    12.011    1.085167    2.296785    0.821136
   4 C     6.0000    0    12.011    3.310936    1.169232    0.083130
   5 C     6.0000    0    12.011    2.863912   -1.037331   -1.217530
   6 C     6.0000    0    12.011    0.099939   -1.546391   -1.372691
   7 H     1.0000    0     1.008   -5.757430   -1.189789    2.949134
   8 H     1.0000    0     1.008   -2.349322    1.813916   -1.345756
   9 H     1.0000    0     1.008    0.863435    3.993559    1.904961
  10 H     1.0000    0     1.008    5.157369    1.930194    0.468826
  11 H     1.0000    0     1.008    4.261228   -2.273736   -2.015097
  12 H     1.0000    0     1.008   -0.544144   -1.753318   -3.322832
  13 H     1.0000    0     1.008   -0.412412   -3.281865   -0.374858

--------------------------------
INTERNAL COORDINATES (ANGSTROEM)
--------------------------------
 O      0   0   0     0.000000000000     0.00000000     0.00000000
 O      1   0   0     1.433701593262     0.00000000     0.00000000
 C      2   1   0     1.411947628488   109.56965360     0.00000000
 C      3   2   1     1.496346595391   107.52741087   170.70028143
 C      4   3   2     1.376886177120   110.09056735   122.84124272
 C      5   4   3     1.375908204041   111.25862199   359.81150426
 C      6   5   4     1.489496463806   110.48016974   358.78011794
 H      1   2   3     0.965451364392   101.63487836   185.04464650
 H      3   2   1     1.102029691288   107.88549253    49.84928282
 H      4   3   2     1.071878857990   122.40760559   304.58546857
 H      5   4   3     1.076344550722   124.09966349   179.45322785
 H      6   5   4     1.073760850528   126.53677298   179.41124029
 H      7   6   5     1.092300511866   112.12417751   123.54574394
 H      7   6   5     1.093496478806   111.63813201   243.77513117

---------------------------
INTERNAL COORDINATES (A.U.)
---------------------------
 O      0   0   0     0.000000000000     0.00000000     0.00000000
 O      1   0   0     2.709303369032     0.00000000     0.00000000
 C      2   1   0     2.668194333282   109.56965360     0.00000000
 C      3   2   1     2.827685266714   107.52741087   170.70028143
 C      4   3   2     2.601937792339   110.09056735   122.84124272
 C      5   4   3     2.600089691053   111.25862199   359.81150426
 C      6   5   4     2.814740394037   110.48016974   358.78011794
 H      1   2   3     1.824438674321   101.63487836   185.04464650
 H      3   2   1     2.082534307984   107.88549253    49.84928282
 H      4   3   2     2.025557490341   122.40760559   304.58546857
 H      5   4   3     2.033996426603   124.09966349   179.45322785
 H      6   5   4     2.029113940825   126.53677298   179.41124029
 H      7   6   5     2.064148823369   112.12417751   123.54574394
 H      7   6   5     2.066408873351   111.63813201   243.77513117

---------------------
BASIS SET INFORMATION
---------------------
There are 3 groups of distinct atoms

 Group   1 Type O   : 7s4p1d contracted to 3s2p1d pattern {511/31/1}
 Group   2 Type C   : 7s4p1d contracted to 3s2p1d pattern {511/31/1}
 Group   3 Type H   : 4s1p contracted to 2s1p pattern {31/1}

Atom   0O    basis set group =>   1
Atom   1O    basis set group =>   1
Atom   2C    basis set group =>   2
Atom   3C    basis set group =>   2
Atom   4C    basis set group =>   2
Atom   5C    basis set group =>   2
Atom   6C    basis set group =>   2
Atom   7H    basis set group =>   3
Atom   8H    basis set group =>   3
Atom   9H    basis set group =>   3
Atom  10H    basis set group =>   3
Atom  11H    basis set group =>   3
Atom  12H    basis set group =>   3
Atom  13H    basis set group =>   3
---------------------------------
AUXILIARY/J BASIS SET INFORMATION
---------------------------------
There are 3 groups of distinct atoms

 Group   1 Type O   : 12s5p4d2f1g contracted to 6s4p3d1f1g pattern {711111/2111/211/2/1}
 Group   2 Type C   : 12s5p4d2f1g contracted to 6s4p3d1f1g pattern {711111/2111/211/2/1}
 Group   3 Type H   : 5s2p1d contracted to 3s1p1d pattern {311/2/1}

Atom   0O    basis set group =>   1
Atom   1O    basis set group =>   1
Atom   2C    basis set group =>   2
Atom   3C    basis set group =>   2
Atom   4C    basis set group =>   2
Atom   5C    basis set group =>   2
Atom   6C    basis set group =>   2
Atom   7H    basis set group =>   3
Atom   8H    basis set group =>   3
Atom   9H    basis set group =>   3
Atom  10H    basis set group =>   3
Atom  11H    basis set group =>   3
Atom  12H    basis set group =>   3
Atom  13H    basis set group =>   3


           ************************************************************
           *        Program running with 8 parallel MPI-processes     *
           *              working on a common directory               *
           ************************************************************
------------------------------------------------------------------------------
                           ORCA GTO INTEGRAL CALCULATION
                           -- RI-GTO INTEGRALS CHOSEN --
------------------------------------------------------------------------------
------------------------------------------------------------------------------
                   ___                                                        
                  /   \      - P O W E R E D   B Y -                         
                 /     \                                                     
                 |  |  |   _    _      __       _____    __    __             
                 |  |  |  | |  | |    /  \     |  _  \  |  |  /  |          
                  \  \/   | |  | |   /    \    | | | |  |  | /  /          
                 / \  \   | |__| |  /  /\  \   | |_| |  |  |/  /          
                |  |  |   |  __  | /  /__\  \  |    /   |      \           
                |  |  |   | |  | | |   __   |  |    \   |  |\   \          
                \     /   | |  | | |  |  |  |  | |\  \  |  | \   \       
                 \___/    |_|  |_| |__|  |__|  |_| \__\ |__|  \__/        
                                                                              
                      - O R C A' S   B I G   F R I E N D -                    
                                      &                                       
                       - I N T E G R A L  F E E D E R -                       
                                                                              
 v1 FN, 2020, v2 2021                                                         
------------------------------------------------------------------------------


Reading SHARK input file r0_C5H7O2_conf1_opt_orca.SHARKINP.tmp ... ok
----------------------
SHARK INTEGRAL PACKAGE
----------------------

Number of atoms                             ...     14
Number of basis functions                   ...    133
Number of shells                            ...     63
Maximum angular momentum                    ...      2
Integral batch strategy                     ... SHARK/LIBINT Hybrid
RI-J (if used) integral strategy            ... SPLIT-RIJ (Revised 2003 algorithm where possible)
Printlevel                                  ...      1
Contraction scheme used                     ... SEGMENTED contraction
Coulomb Range Separation                    ... NOT USED
Exchange Range Separation                   ... NOT USED
Finite Nucleus Model                        ... NOT USED
Auxiliary Coulomb fitting basis             ... AVAILABLE
   # of basis functions in Aux-J            ...    420
   # of shells in Aux-J                     ...    140
   Maximum angular momentum in Aux-J        ...      4
Auxiliary J/K fitting basis                 ... NOT available
Auxiliary Correlation fitting basis         ... NOT available
Auxiliary 'external' fitting basis          ... NOT available
Integral threshold                          ...     2.500000e-11
Primitive cut-off                           ...     2.500000e-12
Primitive pair pre-selection threshold      ...     2.500000e-12

Calculating pre-screening integrals         ... done (  0.0 sec) Dimension = 63
Organizing shell pair data                  ... done (  0.0 sec)
Shell pair information
Total number of shell pairs                 ...      2016
Shell pairs after pre-screening             ...      1936
Total number of primitive shell pairs       ...      7252
Primitive shell pairs kept                  ...      5296
          la=0 lb=0:    599 shell pairs
          la=1 lb=0:    710 shell pairs
          la=1 lb=1:    225 shell pairs
          la=2 lb=0:    234 shell pairs
          la=2 lb=1:    141 shell pairs
          la=2 lb=2:     27 shell pairs

Calculating one electron integrals          ... done (  0.0 sec)
Calculating RI/J V-Matrix + Cholesky decomp.... done (  0.0 sec)
Calculating Nuclear repulsion               ... done (  0.0 sec) ENN=    297.607209581351 Eh

SHARK setup successfully completed in   0.1 seconds

Maximum memory used throughout the entire GTOINT-calculation: 10.7 MB


           ************************************************************
           *        Program running with 8 parallel MPI-processes     *
           *              working on a common directory               *
           ************************************************************
-------------------------------------------------------------------------------
                                 ORCA SCF
-------------------------------------------------------------------------------

------------
SCF SETTINGS
------------
Hamiltonian:
 Density Functional     Method          .... DFT(GTOs)
 Exchange Functional    Exchange        .... PBE
   PBE kappa parameter   XKappa         ....  0.804000
   PBE mue parameter    XMuePBE         ....  0.219520
 Correlation Functional Correlation     .... PBE
   PBE beta parameter  CBetaPBE         ....  0.066725
 LDA part of GGA corr.  LDAOpt          .... PW91-LDA
 Gradients option       PostSCFGGA      .... off
 Hybrid DFT is turned on
   Fraction HF Exchange ScalHFX         ....  0.250000
   Scaling of DF-GGA-X  ScalDFX         ....  0.750000
   Scaling of DF-GGA-C  ScalDFC         ....  1.000000
   Scaling of DF-LDA-C  ScalLDAC        ....  1.000000
   Perturbative correction              ....  0.000000
   Density functional embedding theory  .... OFF
   NL short-range parameter             ....  6.900000
 RI-approximation to the Coulomb term is turned on
   Number of AuxJ basis functions       .... 420
   RIJ-COSX (HFX calculated with COS-X)).... on


General Settings:
 Integral files         IntName         .... r0_C5H7O2_conf1_opt_orca
 Hartree-Fock type      HFTyp           .... UHF
 Total Charge           Charge          ....    0
 Multiplicity           Mult            ....    2
 Number of Electrons    NEL             ....   53
 Basis Dimension        Dim             ....  133
 Nuclear Repulsion      ENuc            ....    297.6072095814 Eh

Convergence Acceleration:
 DIIS                   CNVDIIS         .... on
   Start iteration      DIISMaxIt       ....    12
   Startup error        DIISStart       ....  0.200000
   # of expansion vecs  DIISMaxEq       ....     5
   Bias factor          DIISBfac        ....   1.050
   Max. coefficient     DIISMaxC        ....  10.000
 Trust-Rad. Augm. Hess. CNVTRAH         .... auto
   Auto Start mean grad. ratio tolernc. ....  1.125000
   Auto Start start iteration           ....    20
   Auto Start num. interpolation iter.  ....    10
   Max. Number of Micro iterations      ....    16
   Max. Number of Macro iterations      .... Maxiter - #DIIS iter
   Number of Davidson start vectors     ....     2
   Converg. threshold I  (grad. norm)   ....   1.000e-05
   Converg. threshold II (energy diff.) ....   1.000e-08
   Grad. Scal. Fac. for Micro threshold ....   0.100
   Minimum threshold for Micro iter.    ....   0.010
   NR start threshold (gradient norm)   ....   0.001
   Initial trust radius                 ....   0.400
   Minimum AH scaling param. (alpha)    ....   1.000
   Maximum AH scaling param. (alpha)    .... 1000.000
   Orbital update algorithm             .... Taylor
   White noise on init. David. guess    .... on
   Maximum white noise                  ....   0.010
   Quad. conv. algorithm                .... NR
 SOSCF                  CNVSOSCF        .... off
 Level Shifting         CNVShift        .... on
   Level shift para.    LevelShift      ....    0.2500
   Turn off err/grad.   ShiftErr        ....    0.0010
 Zerner damping         CNVZerner       .... off
 Static damping         CNVDamp         .... on
   Fraction old density DampFac         ....    0.7000
   Max. Damping (<1)    DampMax         ....    0.9800
   Min. Damping (>=0)   DampMin         ....    0.0000
   Turn off err/grad.   DampErr         ....    0.1000
 Fernandez-Rico         CNVRico         .... off

SCF Procedure:
 Maximum # iterations   MaxIter         ....   250
 SCF integral mode      SCFMode         .... Direct
   Integral package                     .... SHARK and LIBINT hybrid scheme
 Reset frequency        DirectResetFreq ....    20
 Integral Threshold     Thresh          ....  2.500e-11 Eh
 Primitive CutOff       TCut            ....  2.500e-12 Eh

Convergence Tolerance:
 Convergence Check Mode ConvCheckMode   .... Total+1el-Energy
 Convergence forced     ConvForced      .... 0
 Energy Change          TolE            ....  1.000e-08 Eh
 1-El. energy change                    ....  1.000e-05 Eh
 DIIS Error             TolErr          ....  5.000e-07


Diagonalization of the overlap matrix:
Smallest eigenvalue                        ... 8.959e-04
Time for diagonalization                   ...    0.003 sec
Threshold for overlap eigenvalues          ... 1.000e-08
Number of eigenvalues below threshold      ... 0
Time for construction of square roots      ...    0.002 sec
Total time needed                          ...    0.005 sec

Time for model grid setup =    0.042 sec

------------------------------
INITIAL GUESS: MODEL POTENTIAL
------------------------------
Loading Hartree-Fock densities                     ... done
Calculating cut-offs                               ... done
Initializing the effective Hamiltonian             ... done
Setting up the integral package (SHARK)            ... done
Starting the Coulomb interaction                   ... done (   0.0 sec)
Reading the grid                                   ... done
Mapping shells                                     ... done
Starting the XC term evaluation                    ... done (   0.0 sec)
  promolecular density results
     # of electrons  =     52.997195200
     EX              =    -43.902382737
     EC              =     -1.760745193
     EX+EC           =    -45.663127930
Transforming the Hamiltonian                       ... done (   0.0 sec)
Diagonalizing the Hamiltonian                      ... done (   0.0 sec)
Back transforming the eigenvectors                 ... done (   0.0 sec)
Now organizing SCF variables                       ... done
                      ------------------
                      INITIAL GUESS DONE (   0.1 sec)
                      ------------------
-------------------
DFT GRID GENERATION
-------------------

General Integration Accuracy     IntAcc      ... 4.388
Radial Grid Type                 RadialGrid  ... OptM3 with GC (2021)
Angular Grid (max. ang.)         AngularGrid ... 4 (Lebedev-302)
Angular grid pruning method      GridPruning ... 4 (adaptive)
Weight generation scheme         WeightScheme... Becke
Basis function cutoff            BFCut       ... 1.0000e-11
Integration weight cutoff        WCut        ... 1.0000e-14
Angular grids for H and He will be reduced by one unit
Partially contracted basis set               ... off
Rotationally invariant grid construction     ... off

Total number of grid points                  ...    64871
Total number of batches                      ...     1020
Average number of points per batch           ...       63
Average number of grid points per atom       ...     4634
Time for grid setup =    0.244 sec

--------------------
COSX GRID GENERATION
--------------------

GRIDX 1
-------
General Integration Accuracy     IntAcc      ... 3.816
Radial Grid Type                 RadialGrid  ... OptM3 with GC (2021)
Angular Grid (max. ang.)         AngularGrid ... 1 (Lebedev-50)
Angular grid pruning method      GridPruning ... 4 (adaptive)
Weight generation scheme         WeightScheme... Becke
Basis function cutoff            BFCut       ... 1.0000e-11
Integration weight cutoff        WCut        ... 1.0000e-14
Angular grids for H and He will be reduced by one unit
Partially contracted basis set               ... on
Rotationally invariant grid construction     ... off

Total number of grid points                  ...     8299
Total number of batches                      ...      136
Average number of points per batch           ...       61
Average number of grid points per atom       ...      593
UseSFitting                                  ... on

GRIDX 2
-------
General Integration Accuracy     IntAcc      ... 4.020
Radial Grid Type                 RadialGrid  ... OptM3 with GC (2021)
Angular Grid (max. ang.)         AngularGrid ... 2 (Lebedev-110)
Angular grid pruning method      GridPruning ... 4 (adaptive)
Weight generation scheme         WeightScheme... Becke
Basis function cutoff            BFCut       ... 1.0000e-11
Integration weight cutoff        WCut        ... 1.0000e-14
Angular grids for H and He will be reduced by one unit
Partially contracted basis set               ... on
Rotationally invariant grid construction     ... off

Total number of grid points                  ...    18071
Total number of batches                      ...      292
Average number of points per batch           ...       61
Average number of grid points per atom       ...     1291
UseSFitting                                  ... on

GRIDX 3
-------
General Integration Accuracy     IntAcc      ... 4.338
Radial Grid Type                 RadialGrid  ... OptM3 with GC (2021)
Angular Grid (max. ang.)         AngularGrid ... 3 (Lebedev-194)
Angular grid pruning method      GridPruning ... 4 (adaptive)
Weight generation scheme         WeightScheme... Becke
Basis function cutoff            BFCut       ... 1.0000e-11
Integration weight cutoff        WCut        ... 1.0000e-14
Angular grids for H and He will be reduced by one unit
Partially contracted basis set               ... on
Rotationally invariant grid construction     ... off

Total number of grid points                  ...    39703
Total number of batches                      ...      629
Average number of points per batch           ...       63
Average number of grid points per atom       ...     2836
UseSFitting                                  ... on

Time for X-Grid setup             =    0.181 sec

--------------
SCF ITERATIONS
--------------
ITER       Energy         Delta-E        Max-DP      RMS-DP      [F,P]     Damp
               ***  Starting incremental Fock matrix formation  ***
  0   -344.2542462406   0.000000000000 0.03191587  0.00102782  0.0716266 0.7000
  1   -344.3097219960  -0.055475755383 0.02037708  0.00073522  0.0357932 0.7000
                               ***Turning on DIIS***
  2   -344.3353052622  -0.025583266252 0.03168770  0.00136715  0.0167654 0.0000
  3   -344.3747658570  -0.039460594779 0.01480909  0.00051356  0.0180002 0.0000
  4   -344.3834088160  -0.008642959038 0.00457300  0.00013848  0.0035571 0.0000
  5   -344.3838561974  -0.000447381341 0.00316970  0.00008312  0.0025002 0.0000
  6   -344.3840196267  -0.000163429328 0.00263530  0.00006015  0.0019355 0.0000
  7   -344.3841225793  -0.000102952574 0.00332151  0.00007198  0.0009228 0.0000
               *** Restarting incremental Fock matrix formation ***
                                   *** Resetting DIIS ***
  8   -344.3841300795  -0.000007500181 0.00045571  0.00001660  0.0002730 0.0000
  9   -344.3841308118  -0.000000732312 0.00031637  0.00000825  0.0002605 0.0000
 10   -344.3841323107  -0.000001498891 0.00019039  0.00000400  0.0000875 0.0000
 11   -344.3841325016  -0.000000190934 0.00011447  0.00000247  0.0000645 0.0000
 12   -344.3841325962  -0.000000094605 0.00003020  0.00000084  0.0000244 0.0000
 13   -344.3841325992  -0.000000002987 0.00001190  0.00000036  0.0000206 0.0000
 14   -344.3841326030  -0.000000003788 0.00000264  0.00000010  0.0000036 0.0000
                            ***DIIS convergence achieved***

               *****************************************************
               *                     SUCCESS                       *
               *           SCF CONVERGED AFTER  15 CYCLES          *
               *****************************************************

Old exchange energy                            =    -11.195105227 Eh
New exchange energy                            =    -11.195105869 Eh
Exchange energy change after final integration =     -0.000000642 Eh
Total energy after final integration           =   -344.384133246 Eh
Final COS-X integration done in                =     0.656 sec

----------------
TOTAL SCF ENERGY
----------------

Total Energy       :         -344.38413325 Eh           -9371.16869 eV

Components:
Nuclear Repulsion  :          297.60720958 Eh            8098.30388 eV
Electronic Energy  :         -641.99134283 Eh          -17469.47257 eV
One Electron Energy:        -1058.43731307 Eh          -28801.54353 eV
Two Electron Energy:          416.44597024 Eh           11332.07096 eV
Max COSX asymmetry :            0.00000053 Eh               0.00001 eV

Virial components:
Potential Energy   :         -686.07985559 Eh          -18669.18199 eV
Kinetic Energy     :          341.69572234 Eh            9298.01331 eV
Virial Ratio       :            2.00786785


DFT components:
N(Alpha)           :       26.999988797190 electrons
N(Beta)            :       25.999985299813 electrons
N(Total)           :       52.999974097003 electrons
E(X)               :      -33.507196762607 Eh       
E(C)               :       -1.772426129657 Eh       
E(XC)              :      -35.279622892264 Eh       
DFET-embed. en.    :        0.000000000000 Eh       

---------------
SCF CONVERGENCE
---------------

  Last Energy change         ...   -8.4941e-10  Tolerance :   1.0000e-08
  Last MAX-Density change    ...    0.0000e+00  Tolerance :   1.0000e-07
  Last RMS-Density change    ...    0.0000e+00  Tolerance :   5.0000e-09
  Last DIIS Error            ...    7.9381e-07  Tolerance :   5.0000e-07

             **** THE GBW FILE WAS UPDATED (r0_C5H7O2_conf1_opt_orca.gbw) ****
             **** DENSITY r0_C5H7O2_conf1_opt_orca.scfp WAS UPDATED ****
             **** ENERGY FILE WAS UPDATED (r0_C5H7O2_conf1_opt_orca.en.tmp) ****
----------------------
UHF SPIN CONTAMINATION
----------------------

Warning: in a DFT calculation there is little theoretical justification to 
         calculate <S**2> as in Hartree-Fock theory. We will do it anyways
         but you should keep in mind that the values have only limited relevance

Expectation value of <S**2>     :     0.784370
Ideal value S*(S+1) for S=0.5   :     0.750000
Deviation                       :     0.034370

             **** THE GBW FILE WAS UPDATED (r0_C5H7O2_conf1_opt_orca.gbw) ****
             **** DENSITY r0_C5H7O2_conf1_opt_orca.scfp WAS UPDATED ****
----------------
ORBITAL ENERGIES
----------------
                 SPIN UP ORBITALS
  NO   OCC          E(Eh)            E(eV) 
   0   1.0000     -19.254318      -523.9366 
   1   1.0000     -19.251036      -523.8473 
   2   1.0000     -10.284013      -279.8422 
   3   1.0000     -10.240707      -278.6638 
   4   1.0000     -10.238803      -278.6120 
   5   1.0000     -10.234361      -278.4911 
   6   1.0000     -10.229209      -278.3509 
   7   1.0000      -1.135480       -30.8980 
   8   1.0000      -0.935207       -25.4483 
   9   1.0000      -0.864457       -23.5231 
  10   1.0000      -0.733837       -19.9687 
  11   1.0000      -0.709044       -19.2941 
  12   1.0000      -0.587922       -15.9982 
  13   1.0000      -0.564643       -15.3647 
  14   1.0000      -0.539184       -14.6719 
  15   1.0000      -0.532831       -14.4991 
  16   1.0000      -0.493582       -13.4310 
  17   1.0000      -0.442063       -12.0291 
  18   1.0000      -0.419804       -11.4234 
  19   1.0000      -0.408097       -11.1049 
  20   1.0000      -0.388355       -10.5677 
  21   1.0000      -0.384603       -10.4656 
  22   1.0000      -0.360447        -9.8083 
  23   1.0000      -0.340306        -9.2602 
  24   1.0000      -0.328590        -8.9414 
  25   1.0000      -0.246384        -6.7045 
  26   1.0000      -0.196783        -5.3547 
  27   0.0000       0.028290         0.7698 
  28   0.0000       0.062920         1.7121 
  29   0.0000       0.085206         2.3186 
  30   0.0000       0.098595         2.6829 
  31   0.0000       0.117759         3.2044 
  32   0.0000       0.124941         3.3998 
  33   0.0000       0.139241         3.7889 
  34   0.0000       0.149785         4.0758 
  35   0.0000       0.164151         4.4668 
  36   0.0000       0.194882         5.3030 
  37   0.0000       0.213643         5.8135 
  38   0.0000       0.254426         6.9233 
  39   0.0000       0.300903         8.1880 
  40   0.0000       0.356658         9.7052 
  41   0.0000       0.391121        10.6429 
  42   0.0000       0.416391        11.3306 
  43   0.0000       0.449488        12.2312 
  44   0.0000       0.474407        12.9093 
  45   0.0000       0.493701        13.4343 
  46   0.0000       0.512603        13.9486 
  47   0.0000       0.531594        14.4654 
  48   0.0000       0.548888        14.9360 
  49   0.0000       0.562573        15.3084 
  50   0.0000       0.604674        16.4540 
  51   0.0000       0.612868        16.6770 
  52   0.0000       0.625228        17.0133 
  53   0.0000       0.641263        17.4496 
  54   0.0000       0.652784        17.7632 
  55   0.0000       0.668173        18.1819 
  56   0.0000       0.671081        18.2610 
  57   0.0000       0.692004        18.8304 
  58   0.0000       0.712173        19.3792 
  59   0.0000       0.720797        19.6139 
  60   0.0000       0.729512        19.8510 
  61   0.0000       0.752788        20.4844 
  62   0.0000       0.779495        21.2111 
  63   0.0000       0.800340        21.7784 
  64   0.0000       0.811631        22.0856 
  65   0.0000       0.837813        22.7981 
  66   0.0000       0.914814        24.8934 
  67   0.0000       0.978049        26.6141 
  68   0.0000       1.003576        27.3087 
  69   0.0000       1.047546        28.5052 
  70   0.0000       1.086404        29.5625 
  71   0.0000       1.116300        30.3761 
  72   0.0000       1.181983        32.1634 
  73   0.0000       1.187976        32.3265 
  74   0.0000       1.212341        32.9895 
  75   0.0000       1.248537        33.9744 
  76   0.0000       1.279449        34.8156 
  77   0.0000       1.289242        35.0821 
  78   0.0000       1.394399        37.9435 
  79   0.0000       1.434260        39.0282 
  80   0.0000       1.472047        40.0564 
  81   0.0000       1.535641        41.7869 
  82   0.0000       1.557984        42.3949 
  83   0.0000       1.596760        43.4501 
  84   0.0000       1.649760        44.8922 
  85   0.0000       1.664178        45.2846 
  86   0.0000       1.700508        46.2732 
  87   0.0000       1.705107        46.3983 
  88   0.0000       1.735694        47.2306 
  89   0.0000       1.765990        48.0550 
  90   0.0000       1.790563        48.7237 
  91   0.0000       1.808205        49.2038 
  92   0.0000       1.835987        49.9597 
  93   0.0000       1.864416        50.7334 
  94   0.0000       1.883421        51.2505 
  95   0.0000       1.907515        51.9061 
  96   0.0000       1.945104        52.9290 
  97   0.0000       1.948129        53.0113 
  98   0.0000       1.996610        54.3305 
  99   0.0000       2.038769        55.4777 
 100   0.0000       2.055615        55.9361 
 101   0.0000       2.122692        57.7614 
 102   0.0000       2.136125        58.1269 
 103   0.0000       2.169092        59.0240 
 104   0.0000       2.214940        60.2716 
 105   0.0000       2.227112        60.6028 
 106   0.0000       2.265720        61.6534 
 107   0.0000       2.293574        62.4113 
 108   0.0000       2.342429        63.7407 
 109   0.0000       2.366616        64.3989 
 110   0.0000       2.390838        65.0580 
 111   0.0000       2.450368        66.6779 
 112   0.0000       2.508072        68.2481 
 113   0.0000       2.537873        69.0590 
 114   0.0000       2.549493        69.3752 
 115   0.0000       2.652801        72.1864 
 116   0.0000       2.671164        72.6861 
 117   0.0000       2.708256        73.6954 
 118   0.0000       2.746314        74.7310 
 119   0.0000       2.756805        75.0165 
 120   0.0000       2.844473        77.4020 
 121   0.0000       2.893151        78.7267 
 122   0.0000       2.926239        79.6270 
 123   0.0000       2.979177        81.0675 
 124   0.0000       3.020214        82.1842 
 125   0.0000       3.051616        83.0387 
 126   0.0000       3.091082        84.1126 
 127   0.0000       3.151866        85.7666 
 128   0.0000       3.218999        87.5934 
 129   0.0000       3.383870        92.0798 
 130   0.0000       3.462139        94.2096 
 131   0.0000       3.611407        98.2714 
 132   0.0000       3.904879       106.2572 

                 SPIN DOWN ORBITALS
  NO   OCC          E(Eh)            E(eV) 
   0   1.0000     -19.253546      -523.9156 
   1   1.0000     -19.250824      -523.8415 
   2   1.0000     -10.284680      -279.8604 
   3   1.0000     -10.238408      -278.6013 
   4   1.0000     -10.230546      -278.3873 
   5   1.0000     -10.229790      -278.3667 
   6   1.0000     -10.228778      -278.3392 
   7   1.0000      -1.134284       -30.8654 
   8   1.0000      -0.932207       -25.3666 
   9   1.0000      -0.855444       -23.2778 
  10   1.0000      -0.726609       -19.7720 
  11   1.0000      -0.696091       -18.9416 
  12   1.0000      -0.579313       -15.7639 
  13   1.0000      -0.559679       -15.2296 
  14   1.0000      -0.531553       -14.4643 
  15   1.0000      -0.531027       -14.4500 
  16   1.0000      -0.490110       -13.3366 
  17   1.0000      -0.439294       -11.9538 
  18   1.0000      -0.411240       -11.1904 
  19   1.0000      -0.402461       -10.9515 
  20   1.0000      -0.384824       -10.4716 
  21   1.0000      -0.380450       -10.3526 
  22   1.0000      -0.356406        -9.6983 
  23   1.0000      -0.337996        -9.1973 
  24   1.0000      -0.302180        -8.2227 
  25   1.0000      -0.245286        -6.6746 
  26   0.0000      -0.060294        -1.6407 
  27   0.0000       0.040808         1.1104 
  28   0.0000       0.071401         1.9429 
  29   0.0000       0.089915         2.4467 
  30   0.0000       0.104609         2.8465 
  31   0.0000       0.119400         3.2490 
  32   0.0000       0.128383         3.4935 
  33   0.0000       0.144459         3.9309 
  34   0.0000       0.153326         4.1722 
  35   0.0000       0.168661         4.5895 
  36   0.0000       0.198877         5.4117 
  37   0.0000       0.217505         5.9186 
  38   0.0000       0.259620         7.0646 
  39   0.0000       0.308123         8.3844 
  40   0.0000       0.364513         9.9189 
  41   0.0000       0.394775        10.7424 
  42   0.0000       0.419802        11.4234 
  43   0.0000       0.468863        12.7584 
  44   0.0000       0.483787        13.1645 
  45   0.0000       0.503206        13.6929 
  46   0.0000       0.519416        14.1340 
  47   0.0000       0.540369        14.7042 
  48   0.0000       0.556141        15.1334 
  49   0.0000       0.600543        16.3416 
  50   0.0000       0.607276        16.5248 
  51   0.0000       0.617807        16.8114 
  52   0.0000       0.635477        17.2922 
  53   0.0000       0.648732        17.6529 
  54   0.0000       0.658813        17.9272 
  55   0.0000       0.674303        18.3487 
  56   0.0000       0.680835        18.5265 
  57   0.0000       0.694318        18.8933 
  58   0.0000       0.713346        19.4111 
  59   0.0000       0.722687        19.6653 
  60   0.0000       0.734105        19.9760 
  61   0.0000       0.758672        20.6445 
  62   0.0000       0.785174        21.3657 
  63   0.0000       0.808033        21.9877 
  64   0.0000       0.818142        22.2628 
  65   0.0000       0.841722        22.9044 
  66   0.0000       0.916573        24.9412 
  67   0.0000       0.978900        26.6372 
  68   0.0000       1.004822        27.3426 
  69   0.0000       1.054375        28.6910 
  70   0.0000       1.089822        29.6556 
  71   0.0000       1.121669        30.5222 
  72   0.0000       1.184468        32.2310 
  73   0.0000       1.189679        32.3728 
  74   0.0000       1.218817        33.1657 
  75   0.0000       1.249931        34.0124 
  76   0.0000       1.289439        35.0874 
  77   0.0000       1.298991        35.3474 
  78   0.0000       1.395993        37.9869 
  79   0.0000       1.434727        39.0409 
  80   0.0000       1.474465        40.1222 
  81   0.0000       1.538425        41.8627 
  82   0.0000       1.570596        42.7381 
  83   0.0000       1.604586        43.6630 
  84   0.0000       1.654427        45.0192 
  85   0.0000       1.668476        45.4016 
  86   0.0000       1.701767        46.3074 
  87   0.0000       1.710403        46.5424 
  88   0.0000       1.737810        47.2882 
  89   0.0000       1.771599        48.2077 
  90   0.0000       1.800012        48.9808 
  91   0.0000       1.816082        49.4181 
  92   0.0000       1.844104        50.1806 
  93   0.0000       1.874226        51.0003 
  94   0.0000       1.894462        51.5509 
  95   0.0000       1.915262        52.1169 
  96   0.0000       1.955841        53.2211 
  97   0.0000       1.957735        53.2727 
  98   0.0000       2.002185        54.4822 
  99   0.0000       2.042152        55.5698 
 100   0.0000       2.062777        56.1310 
 101   0.0000       2.127886        57.9027 
 102   0.0000       2.147099        58.4255 
 103   0.0000       2.172142        59.1070 
 104   0.0000       2.226028        60.5733 
 105   0.0000       2.227614        60.6165 
 106   0.0000       2.275310        61.9143 
 107   0.0000       2.304789        62.7165 
 108   0.0000       2.351625        63.9910 
 109   0.0000       2.375845        64.6500 
 110   0.0000       2.400877        65.3312 
 111   0.0000       2.454127        66.7802 
 112   0.0000       2.514072        68.4114 
 113   0.0000       2.545243        69.2596 
 114   0.0000       2.561250        69.6951 
 115   0.0000       2.659803        72.3769 
 116   0.0000       2.675665        72.8086 
 117   0.0000       2.713387        73.8350 
 118   0.0000       2.749689        74.8229 
 119   0.0000       2.757596        75.0380 
 120   0.0000       2.849135        77.5289 
 121   0.0000       2.897271        78.8388 
 122   0.0000       2.927650        79.6654 
 123   0.0000       2.980203        81.0954 
 124   0.0000       3.022362        82.2426 
 125   0.0000       3.054205        83.1091 
 126   0.0000       3.092573        84.1532 
 127   0.0000       3.154706        85.8439 
 128   0.0000       3.220739        87.6408 
 129   0.0000       3.384707        92.1026 
 130   0.0000       3.465372        94.2976 
 131   0.0000       3.611733        98.2802 
 132   0.0000       3.905599       106.2767 

                    ********************************
                    * MULLIKEN POPULATION ANALYSIS *
                    ********************************

--------------------------------------------
MULLIKEN ATOMIC CHARGES AND SPIN POPULATIONS
--------------------------------------------
   0 O :   -0.166310    0.008048
   1 O :   -0.283314    0.009683
   2 C :    0.135425   -0.049916
   3 C :   -0.060297    0.696194
   4 C :    0.010186   -0.315546
   5 C :   -0.111452    0.698983
   6 C :    0.061218   -0.062769
   7 H :    0.189888   -0.000239
   8 H :    0.039514    0.026229
   9 H :    0.028961   -0.033238
  10 H :    0.020088    0.010647
  11 H :    0.025652   -0.034063
  12 H :    0.051196    0.020764
  13 H :    0.059243    0.025222
Sum of atomic charges         :   -0.0000000
Sum of atomic spin populations:    1.0000000

-----------------------------------------------------
MULLIKEN REDUCED ORBITAL CHARGES AND SPIN POPULATIONS
-----------------------------------------------------
CHARGE
  0 O s       :     3.771977  s :     3.771977
      pz      :     1.428731  p :     4.376213
      px      :     1.144038
      py      :     1.803444
      dz2     :     0.004312  d :     0.018119
      dxz     :     0.005283
      dyz     :     0.001721
      dx2y2   :     0.003073
      dxy     :     0.003731
  1 O s       :     3.850092  s :     3.850092
      pz      :     1.506362  p :     4.410949
      px      :     1.155428
      py      :     1.749159
      dz2     :     0.004692  d :     0.022273
      dxz     :     0.006152
      dyz     :     0.002725
      dx2y2   :     0.004031
      dxy     :     0.004672
  2 C s       :     3.042840  s :     3.042840
      pz      :     0.836119  p :     2.751579
      px      :     0.923471
      py      :     0.991989
      dz2     :     0.010791  d :     0.070156
      dxz     :     0.021365
      dyz     :     0.016445
      dx2y2   :     0.008502
      dxy     :     0.013054
  3 C s       :     3.208237  s :     3.208237
      pz      :     0.973995  p :     2.819265
      px      :     0.935953
      py      :     0.909318
      dz2     :     0.003173  d :     0.032794
      dxz     :     0.006276
      dyz     :     0.004598
      dx2y2   :     0.009011
      dxy     :     0.009736
  4 C s       :     3.158005  s :     3.158005
      pz      :     0.972836  p :     2.792560
      px      :     0.869325
      py      :     0.950398
      dz2     :     0.006091  d :     0.039250
      dxz     :     0.006476
      dyz     :     0.005464
      dx2y2   :     0.010625
      dxy     :     0.010593
  5 C s       :     3.228354  s :     3.228354
      pz      :     0.966144  p :     2.847908
      px      :     0.953100
      py      :     0.928663
      dz2     :     0.004790  d :     0.035191
      dxz     :     0.005856
      dyz     :     0.005289
      dx2y2   :     0.009404
      dxy     :     0.009852
  6 C s       :     2.940181  s :     2.940181
      pz      :     1.004275  p :     2.964689
      px      :     0.934796
      py      :     1.025618
      dz2     :     0.006758  d :     0.033911
      dxz     :     0.006188
      dyz     :     0.006018
      dx2y2   :     0.008085
      dxy     :     0.006862
  7 H s       :     0.743170  s :     0.743170
      pz      :     0.031340  p :     0.066942
      px      :     0.016661
      py      :     0.018941
  8 H s       :     0.939504  s :     0.939504
      pz      :     0.007264  p :     0.020982
      px      :     0.007231
      py      :     0.006487
  9 H s       :     0.946203  s :     0.946203
      pz      :     0.008693  p :     0.024835
      px      :     0.003440
      py      :     0.012702
 10 H s       :     0.955817  s :     0.955817
      pz      :     0.004748  p :     0.024095
      px      :     0.013793
      py      :     0.005553
 11 H s       :     0.949865  s :     0.949865
      pz      :     0.006806  p :     0.024484
      px      :     0.009110
      py      :     0.008567
 12 H s       :     0.925144  s :     0.925144
      pz      :     0.013819  p :     0.023660
      px      :     0.005438
      py      :     0.004403
 13 H s       :     0.917050  s :     0.917050
      pz      :     0.007470  p :     0.023706
      px      :     0.005035
      py      :     0.011201

SPIN
  0 O s       :     0.000114  s :     0.000114
      pz      :     0.000618  p :     0.007917
      px      :     0.005184
      py      :     0.002115
      dz2     :     0.000009  d :     0.000017
      dxz     :     0.000006
      dyz     :    -0.000001
      dx2y2   :    -0.000002
      dxy     :     0.000004
  1 O s       :     0.001513  s :     0.001513
      pz      :     0.010157  p :     0.008049
      px      :    -0.000767
      py      :    -0.001340
      dz2     :     0.000035  d :     0.000122
      dxz     :     0.000027
      dyz     :     0.000014
      dx2y2   :     0.000012
      dxy     :     0.000033
  2 C s       :    -0.017049  s :    -0.017049
      pz      :    -0.010809  p :    -0.037103
      px      :    -0.011786
      py      :    -0.014508
      dz2     :     0.000086  d :     0.004235
      dxz     :     0.003183
      dyz     :     0.000072
      dx2y2   :     0.000105
      dxy     :     0.000789
  3 C s       :     0.096984  s :     0.096984
      pz      :     0.409622  p :     0.601961
      px      :     0.024787
      py      :     0.167552
      dz2     :    -0.000776  d :    -0.002750
      dxz     :    -0.000463
      dyz     :    -0.001192
      dx2y2   :    -0.000052
      dxy     :    -0.000267
  4 C s       :    -0.055586  s :    -0.055586
      pz      :    -0.159441  p :    -0.269086
      px      :    -0.027158
      py      :    -0.082487
      dz2     :     0.004279  d :     0.009126
      dxz     :     0.001181
      dyz     :     0.001676
      dx2y2   :     0.001358
      dxy     :     0.000632
  5 C s       :     0.094402  s :     0.094402
      pz      :     0.421028  p :     0.607061
      px      :     0.024434
      py      :     0.161600
      dz2     :    -0.001130  d :    -0.002481
      dxz     :     0.000107
      dyz     :    -0.001269
      dx2y2   :    -0.000242
      dxy     :     0.000052
  6 C s       :    -0.020496  s :    -0.020496
      pz      :    -0.011185  p :    -0.045884
      px      :    -0.028233
      py      :    -0.006465
      dz2     :     0.000223  d :     0.003611
      dxz     :     0.002304
      dyz     :     0.000320
      dx2y2   :     0.000071
      dxy     :     0.000693
  7 H s       :    -0.000365  s :    -0.000365
      pz      :     0.000042  p :     0.000126
      px      :     0.000062
      py      :     0.000022
  8 H s       :     0.026271  s :     0.026271
      pz      :     0.000033  p :    -0.000042
      px      :    -0.000208
      py      :     0.000133
  9 H s       :    -0.037060  s :    -0.037060
      pz      :     0.002692  p :     0.003822
      px      :    -0.000088
      py      :     0.001218
 10 H s       :     0.011781  s :     0.011781
      pz      :    -0.000756  p :    -0.001133
      px      :    -0.000083
      py      :    -0.000295
 11 H s       :    -0.037986  s :    -0.037986
      pz      :     0.002846  p :     0.003923
      px      :     0.000102
      py      :     0.000975
 12 H s       :     0.020897  s :     0.020897
      pz      :    -0.000047  p :    -0.000132
      px      :    -0.000092
      py      :     0.000006
 13 H s       :     0.025411  s :     0.025411
      pz      :    -0.000031  p :    -0.000188
      px      :    -0.000095
      py      :    -0.000062


                     *******************************
                     * LOEWDIN POPULATION ANALYSIS *
                     *******************************

-------------------------------------------
LOEWDIN ATOMIC CHARGES AND SPIN POPULATIONS
-------------------------------------------
   0 O :   -0.072844    0.006397
   1 O :   -0.101840    0.016001
   2 C :    0.047398   -0.001048
   3 C :   -0.025256    0.542575
   4 C :   -0.040310   -0.165755
   5 C :   -0.011918    0.548759
   6 C :   -0.051697   -0.007820
   7 H :    0.077006    0.000157
   8 H :    0.020519    0.022247
   9 H :    0.023564    0.000109
  10 H :    0.030865   -0.000052
  11 H :    0.020679    0.000181
  12 H :    0.037828    0.018080
  13 H :    0.046005    0.020169

----------------------------------------------------
LOEWDIN REDUCED ORBITAL CHARGES AND SPIN POPULATIONS
----------------------------------------------------
CHARGE
  0 O s       :     3.542850  s :     3.542850
      pz      :     1.520753  p :     4.497607
      px      :     1.191645
      py      :     1.785209
      dz2     :     0.007574  d :     0.032387
      dxz     :     0.010292
      dyz     :     0.002061
      dx2y2   :     0.005858
      dxy     :     0.006601
  1 O s       :     3.565983  s :     3.565983
      pz      :     1.549299  p :     4.497340
      px      :     1.197060
      py      :     1.750981
      dz2     :     0.007355  d :     0.038518
      dxz     :     0.010956
      dyz     :     0.004249
      dx2y2   :     0.007401
      dxy     :     0.008557
  2 C s       :     2.853417  s :     2.853417
      pz      :     0.924693  p :     2.937889
      px      :     0.985020
      py      :     1.028176
      dz2     :     0.022601  d :     0.161296
      dxz     :     0.051155
      dyz     :     0.038962
      dx2y2   :     0.015839
      dxy     :     0.032739
  3 C s       :     2.885956  s :     2.885956
      pz      :     0.998317  p :     3.056267
      px      :     1.036195
      py      :     1.021755
      dz2     :     0.006760  d :     0.083034
      dxz     :     0.015419
      dyz     :     0.010210
      dx2y2   :     0.022954
      dxy     :     0.027690
  4 C s       :     2.859871  s :     2.859871
      pz      :     0.986670  p :     3.077982
      px      :     1.052467
      py      :     1.038845
      dz2     :     0.014299  d :     0.102457
      dxz     :     0.015184
      dyz     :     0.014451
      dx2y2   :     0.029769
      dxy     :     0.028754
  5 C s       :     2.882420  s :     2.882420
      pz      :     0.981529  p :     3.043109
      px      :     1.031260
      py      :     1.030321
      dz2     :     0.009429  d :     0.086388
      dxz     :     0.012808
      dyz     :     0.013225
      dx2y2   :     0.026256
      dxy     :     0.024670
  6 C s       :     2.841424  s :     2.841424
      pz      :     1.058825  p :     3.122931
      px      :     1.026066
      py      :     1.038041
      dz2     :     0.017909  d :     0.087341
      dxz     :     0.014705
      dyz     :     0.015547
      dx2y2   :     0.022519
      dxy     :     0.016661
  7 H s       :     0.745190  s :     0.745190
      pz      :     0.085592  p :     0.177803
      px      :     0.042006
      py      :     0.050205
  8 H s       :     0.911536  s :     0.911536
      pz      :     0.023934  p :     0.067945
      px      :     0.022595
      py      :     0.021417
  9 H s       :     0.899534  s :     0.899534
      pz      :     0.026767  p :     0.076902
      px      :     0.012652
      py      :     0.037483
 10 H s       :     0.899057  s :     0.899057
      pz      :     0.014608  p :     0.070079
      px      :     0.038339
      py      :     0.017132
 11 H s       :     0.903439  s :     0.903439
      pz      :     0.021722  p :     0.075882
      px      :     0.028651
      py      :     0.025509
 12 H s       :     0.892825  s :     0.892825
      pz      :     0.038737  p :     0.069346
      px      :     0.016398
      py      :     0.014211
 13 H s       :     0.884144  s :     0.884144
      pz      :     0.020361  p :     0.069851
      px      :     0.015276
      py      :     0.034215

SPIN
  0 O s       :    -0.000071  s :    -0.000071
      pz      :     0.000541  p :     0.006417
      px      :     0.004104
      py      :     0.001772
      dz2     :     0.000020  d :     0.000051
      dxz     :    -0.000007
      dyz     :    -0.000002
      dx2y2   :     0.000004
      dxy     :     0.000037
  1 O s       :     0.006916  s :     0.006916
      pz      :     0.009387  p :     0.008931
      px      :     0.000473
      py      :    -0.000930
      dz2     :    -0.000015  d :     0.000154
      dxz     :    -0.000003
      dyz     :     0.000008
      dx2y2   :     0.000048
      dxy     :     0.000117
  2 C s       :    -0.002492  s :    -0.002492
      pz      :    -0.002367  p :    -0.009671
      px      :    -0.002142
      py      :    -0.005162
      dz2     :     0.000256  d :     0.011115
      dxz     :     0.008024
      dyz     :     0.000206
      dx2y2   :     0.000337
      dxy     :     0.002292
  3 C s       :     0.020044  s :     0.020044
      pz      :     0.367292  p :     0.527984
      px      :     0.013037
      py      :     0.147656
      dz2     :    -0.001040  d :    -0.005454
      dxz     :    -0.001414
      dyz     :    -0.001377
      dx2y2   :    -0.000504
      dxy     :    -0.001118
  4 C s       :    -0.010089  s :    -0.010089
      pz      :    -0.119959  p :    -0.178249
      px      :    -0.007572
      py      :    -0.050718
      dz2     :     0.009861  d :     0.022583
      dxz     :     0.003173
      dyz     :     0.003885
      dx2y2   :     0.003581
      dxy     :     0.002082
  5 C s       :     0.020181  s :     0.020181
      pz      :     0.381041  p :     0.533755
      px      :     0.013162
      py      :     0.139552
      dz2     :    -0.001930  d :    -0.005177
      dxz     :    -0.000043
      dyz     :    -0.001809
      dx2y2   :    -0.001019
      dxy     :    -0.000377
  6 C s       :    -0.002936  s :    -0.002936
      pz      :    -0.002430  p :    -0.014412
      px      :    -0.011180
      py      :    -0.000802
      dz2     :     0.000849  d :     0.009527
      dxz     :     0.005345
      dyz     :     0.000908
      dx2y2   :     0.000665
      dxy     :     0.001759
  7 H s       :    -0.000253  s :    -0.000253
      pz      :     0.000107  p :     0.000410
      px      :     0.000224
      py      :     0.000078
  8 H s       :     0.022602  s :     0.022602
      pz      :    -0.000153  p :    -0.000355
      px      :    -0.000126
      py      :    -0.000076
  9 H s       :    -0.016262  s :    -0.016262
      pz      :     0.010532  p :     0.016371
      px      :     0.000291
      py      :     0.005547
 10 H s       :     0.005056  s :     0.005056
      pz      :    -0.003048  p :    -0.005107
      px      :    -0.000683
      py      :    -0.001376
 11 H s       :    -0.016487  s :    -0.016487
      pz      :     0.010893  p :     0.016669
      px      :     0.001276
      py      :     0.004500
 12 H s       :     0.018682  s :     0.018682
      pz      :    -0.000338  p :    -0.000602
      px      :    -0.000202
      py      :    -0.000062
 13 H s       :     0.020910  s :     0.020910
      pz      :    -0.000152  p :    -0.000740
      px      :    -0.000252
      py      :    -0.000337


                      *****************************
                      * MAYER POPULATION ANALYSIS *
                      *****************************

  NA   - Mulliken gross atomic population
  ZA   - Total nuclear charge
  QA   - Mulliken gross atomic charge
  VA   - Mayer's total valence
  BVA  - Mayer's bonded valence
  FA   - Mayer's free valence

  ATOM       NA         ZA         QA         VA         BVA        FA
  0 O      8.1663     8.0000    -0.1663     1.9627     1.9626     0.0001
  1 O      8.2833     8.0000    -0.2833     1.9214     1.9212     0.0003
  2 C      5.8646     6.0000     0.1354     3.9685     3.9666     0.0019
  3 C      6.0603     6.0000    -0.0603     3.8839     3.5633     0.3206
  4 C      5.9898     6.0000     0.0102     3.8673     3.8233     0.0440
  5 C      6.1115     6.0000    -0.1115     3.9247     3.5996     0.3251
  6 C      5.9388     6.0000     0.0612     3.8739     3.8720     0.0019
  7 H      0.8101     1.0000     0.1899     1.0031     1.0031     0.0000
  8 H      0.9605     1.0000     0.0395     0.9866     0.9859     0.0007
  9 H      0.9710     1.0000     0.0290     0.9966     0.9952     0.0014
 10 H      0.9799     1.0000     0.0201     0.9861     0.9860     0.0001
 11 H      0.9743     1.0000     0.0257     0.9907     0.9892     0.0015
 12 H      0.9488     1.0000     0.0512     0.9781     0.9776     0.0005
 13 H      0.9408     1.0000     0.0592     0.9981     0.9975     0.0007

  Mayer bond orders larger than 0.100000
B(  0-O ,  1-O ) :   0.9243 B(  0-O ,  7-H ) :   0.9724 B(  1-O ,  2-C ) :   0.9283 
B(  2-C ,  3-C ) :   1.0299 B(  2-C ,  6-C ) :   1.0406 B(  2-C ,  8-H ) :   0.9127 
B(  3-C ,  4-C ) :   1.3965 B(  3-C ,  5-C ) :   0.1324 B(  3-C ,  9-H ) :   0.9936 
B(  4-C ,  5-C ) :   1.4129 B(  4-C , 10-H ) :   1.0015 B(  5-C ,  6-C ) :   1.0405 
B(  5-C , 11-H ) :   0.9918 B(  6-C , 12-H ) :   0.9293 B(  6-C , 13-H ) :   0.9115 



------------------
HIRSHFELD ANALYSIS
------------------

Total integrated alpha density =     26.999988797
Total integrated beta density  =     25.999985300

  ATOM     CHARGE      SPIN    
   0 O   -0.174561    0.007090
   1 O   -0.126776    0.019324
   2 C    0.063420    0.028835
   3 C   -0.031649    0.426047
   4 C   -0.046345   -0.053523
   5 C   -0.022044    0.431458
   6 C   -0.049077    0.028149
   7 H    0.177196    0.000422
   8 H    0.026507    0.022178
   9 H    0.037665    0.028676
  10 H    0.042023   -0.005822
  11 H    0.034693    0.029223
  12 H    0.032734    0.018001
  13 H    0.036239    0.019947

  TOTAL   0.000026    1.000003

-------
TIMINGS
-------

Total SCF time: 0 days 0 hours 0 min 7 sec 

Total time                  ....       7.253 sec
Sum of individual times     ....       7.118 sec  ( 98.1%)

Fock matrix formation       ....       6.289 sec  ( 86.7%)
  Split-RI-J                ....       0.574 sec  (  9.1% of F)
  Chain of spheres X        ....       4.144 sec  ( 65.9% of F)
  XC integration            ....       1.512 sec  ( 24.0% of F)
    Basis function eval.    ....       0.400 sec  ( 26.5% of XC)
    Density eval.           ....       0.376 sec  ( 24.8% of XC)
    XC-Functional eval.     ....       0.142 sec  (  9.4% of XC)
    XC-Potential eval.      ....       0.446 sec  ( 29.5% of XC)
Diagonalization             ....       0.114 sec  (  1.6%)
Density matrix formation    ....       0.006 sec  (  0.1%)
Population analysis         ....       0.130 sec  (  1.8%)
Initial guess               ....       0.037 sec  (  0.5%)
Orbital Transformation      ....       0.000 sec  (  0.0%)
Orbital Orthonormalization  ....       0.000 sec  (  0.0%)
DIIS solution               ....       0.076 sec  (  1.0%)
Grid generation             ....       0.466 sec  (  6.4%)

Maximum memory used throughout the entire SCF-calculation: 50.7 MB


-------------------------------------------------------------------------------
                          DFT DISPERSION CORRECTION                            
                                                                               
                              DFTD3 V3.1  Rev 1                                
                          USING Becke-Johnson damping                          
-------------------------------------------------------------------------------
The PBE0 functional is recognized
Active option DFTDOPT                   ...         4   

molecular C6(AA) [au] = 1772.622434 


            DFT-D V3
 parameters
 s6 scaling factor         :     1.0000 
 a1 scaling factor         :     0.4145 
 s8 scaling factor         :     1.2177 
 a2 scaling factor         :     4.8593 
 ad hoc parameters k1-k3   :    16.0000     1.3333    -4.0000 

 Edisp/kcal,au: -6.178417850488  -0.009845934519 
 E6   /kcal   :  -3.924543813 
 E8   /kcal   :  -2.253874038 
 % E8         :  36.479792925 

-------------------------   ----------------
Dispersion correction           -0.009845935
-------------------------   ----------------


-------------------------   --------------------
FINAL SINGLE POINT ENERGY      -344.393979180570
-------------------------   --------------------



           ************************************************************
           *        Program running with 8 parallel MPI-processes     *
           *              working on a common directory               *
           ************************************************************
------------------------------------------------------------------------------
                         ORCA SCF GRADIENT CALCULATION
------------------------------------------------------------------------------

 ... reading COSX grid (gridx3)
Gradient of the Kohn-Sham DFT energy:
Kohn-Sham wavefunction type      ... UKS
Hartree-Fock exchange scaling    ...    0.250
Number of operators              ...    2
Number of atoms                  ...   14
Basis set dimensions             ...  133
Integral neglect threshold       ... 2.5e-11
Integral primitive cutoff        ... 2.5e-12
SHARK Integral package           ... ON

Nuc. rep. gradient       (SHARK) ... done (  0.0 sec)
HCore & Overlap gradient (SHARK) ... done (  0.0 sec)
RI-J gradient            (SHARK) ... done (  0.1 sec)
COSX-gradient                    ... done (  1.0 sec)
Exchange-correlation gradient    ... done
Dispersion correction            ... done

------------------
CARTESIAN GRADIENT
------------------

   1   O   :   -0.003509864   -0.000333869    0.013934456
   2   O   :   -0.000864668   -0.001374625   -0.012250197
   3   C   :    0.008105340    0.007655022   -0.000040745
   4   C   :    0.009370602    0.005667936    0.000999024
   5   C   :   -0.002595023   -0.002118803   -0.000895048
   6   C   :    0.006688997    0.004110324    0.002408510
   7   C   :   -0.000055134   -0.006046795   -0.002679071
   8   H   :   -0.005430968   -0.002770989   -0.002989277
   9   H   :    0.002757787   -0.002311637    0.002268578
  10   H   :    0.000595232   -0.011873326   -0.006664163
  11   H   :   -0.010697195   -0.004187258   -0.002038576
  12   H   :   -0.010355155    0.006730974    0.004413173
  13   H   :    0.002611546    0.001863047    0.006505462
  14   H   :    0.003455158    0.005146750   -0.002898025

Difference to translation invariance:
           :    0.0000766528    0.0001567509    0.0000741025

Difference to rotation invariance:
           :   -0.0001755637   -0.0001417787    0.0000228366

Norm of the cartesian gradient     ...    0.0372190151
RMS gradient                       ...    0.0057430187
MAX gradient                       ...    0.0139344562

-------
TIMINGS
-------

Total SCF gradient time            ...        1.782 sec

One electron gradient       ....       0.016 sec  (  0.9%)
RI-J Coulomb gradient       ....       0.123 sec  (  6.9%)
COSX gradient               ....       0.963 sec  ( 54.1%)
XC gradient                 ....       0.476 sec  ( 26.7%)

Maximum memory used throughout the entire SCFGRAD-calculation: 38.8 MB
------------------------------------------------------------------------------
                         ORCA GEOMETRY RELAXATION STEP
------------------------------------------------------------------------------

Reading the OPT-File                    .... done
Getting information on internals        .... done
Copying old internal coords+grads       .... done
Making the new internal coordinates     .... (new redundants).... done
Validating the new internal coordinates .... (new redundants).... done
Calculating the B-matrix                .... done
Calculating the G,G- and P matrices     .... done
Transforming gradient to internals      .... done
Projecting the internal gradient        .... done
Number of atoms                         ....  14
Number of internal coordinates          ....  70
Current Energy                          ....  -344.393979181 Eh
Current gradient norm                   ....     0.037219015 Eh/bohr
Maximum allowed component of the step   ....  0.300
Current trust radius                    ....  0.300
Evaluating the initial hessian          ....  (Almloef) done
Projecting the Hessian                  .... done
Forming the augmented Hessian           .... done
Diagonalizing the augmented Hessian     .... done
Last element of RFO vector              ....  0.994018677
Lowest eigenvalues of augmented Hessian:
 -0.004262753  0.011983899  0.013509536  0.019367908  0.020953305
Length of the computed step             ....  0.109867365
The final length of the internal step   ....  0.109867365
Converting the step to cartesian space:
 Initial RMS(Int)=    0.0131316618
Transforming coordinates:
 Iter   0:  RMS(Cart)=    0.0333423055 RMS(Int)=    0.0131140964
 Iter   1:  RMS(Cart)=    0.0006095036 RMS(Int)=    0.0004229092
 Iter   2:  RMS(Cart)=    0.0000319811 RMS(Int)=    0.0000110902
 Iter   3:  RMS(Cart)=    0.0000014057 RMS(Int)=    0.0000009266
 Iter   4:  RMS(Cart)=    0.0000000697 RMS(Int)=    0.0000000259
done
Storing new coordinates                 .... done

                                .--------------------.
          ----------------------|Geometry convergence|-------------------------
          Item                value                   Tolerance       Converged
          ---------------------------------------------------------------------
          RMS gradient        0.0049802626            0.0005000000      NO
          MAX gradient        0.0233518123            0.0020000000      NO
          RMS step            0.0131316618            0.0070000000      NO
[...]
Angular Grid (max. ang.)         AngularGrid ... 2 (Lebedev-110)
Angular grid pruning method      GridPruning ... 4 (adaptive)
Weight generation scheme         WeightScheme... Becke
Basis function cutoff            BFCut       ... 1.0000e-11
Integration weight cutoff        WCut        ... 1.0000e-14
Angular grids for H and He will be reduced by one unit
Partially contracted basis set               ... on
Rotationally invariant grid construction     ... off

Total number of grid points                  ...    18038
Total number of batches                      ...      288
Average number of points per batch           ...       62
Average number of grid points per atom       ...     1288
UseSFitting                                  ... on

GRIDX 3
-------
General Integration Accuracy     IntAcc      ... 4.338
Radial Grid Type                 RadialGrid  ... OptM3 with GC (2021)
Angular Grid (max. ang.)         AngularGrid ... 3 (Lebedev-194)
Angular grid pruning method      GridPruning ... 4 (adaptive)
Weight generation scheme         WeightScheme... Becke
Basis function cutoff            BFCut       ... 1.0000e-11
Integration weight cutoff        WCut        ... 1.0000e-14
Angular grids for H and He will be reduced by one unit
Partially contracted basis set               ... on
Rotationally invariant grid construction     ... off

Total number of grid points                  ...    39658
Total number of batches                      ...      627
Average number of points per batch           ...       63
Average number of grid points per atom       ...     2833
UseSFitting                                  ... on

Time for X-Grid setup             =    0.178 sec

--------------
SCF ITERATIONS
--------------
ITER       Energy         Delta-E        Max-DP      RMS-DP      [F,P]     Damp
               ***  Starting incremental Fock matrix formation  ***
  0   -344.3858882430   0.000000000000 0.00345293  0.00006992  0.0072640 0.7000
  1   -344.3861722154  -0.000283972375 0.00305223  0.00006183  0.0053968 0.7000
                               ***Turning on DIIS***
  2   -344.3863911667  -0.000218951285 0.00771137  0.00015827  0.0038753 0.0000
  3   -344.3869448222  -0.000553655535 0.00078923  0.00002986  0.0005530 0.0000
               *** Restarting incremental Fock matrix formation ***
                                   *** Resetting DIIS ***
  4   -344.3869525430  -0.000007720822 0.00019101  0.00000743  0.0001254 0.0000
  5   -344.3869526150  -0.000000071982 0.00014848  0.00000410  0.0002282 0.0000
  6   -344.3869529657  -0.000000350659 0.00005209  0.00000134  0.0000827 0.0000
  7   -344.3869530012  -0.000000035548 0.00001995  0.00000064  0.0000235 0.0000
  8   -344.3869530021  -0.000000000910 0.00000775  0.00000029  0.0000095 0.0000
  9   -344.3869530058  -0.000000003719 0.00000228  0.00000008  0.0000018 0.0000
 10   -344.3869530061  -0.000000000281 0.00000196  0.00000004  0.0000011 0.0000
                 **** Energy Check signals convergence ****

               *****************************************************
               *                     SUCCESS                       *
               *           SCF CONVERGED AFTER  11 CYCLES          *
               *****************************************************

Old exchange energy                            =    -11.183799584 Eh
New exchange energy                            =    -11.183719258 Eh
Exchange energy change after final integration =      0.000080325 Eh
Total energy after final integration           =   -344.386872680 Eh
Final COS-X integration done in                =     0.658 sec
Total Energy       :         -344.38687268 Eh           -9371.24323 eV
  Last Energy change         ...    3.7329e-10  Tolerance :   1.0000e-08
  Last MAX-Density change    ...    0.0000e+00  Tolerance :   1.0000e-07
             **** THE GBW FILE WAS UPDATED (r0_C5H7O2_conf1_opt_orca.gbw) ****
             **** DENSITY r0_C5H7O2_conf1_opt_orca.scfp WAS UPDATED ****
             **** ENERGY FILE WAS UPDATED (r0_C5H7O2_conf1_opt_orca.en.tmp) ****
----------------------
UHF SPIN CONTAMINATION
----------------------

Warning: in a DFT calculation there is little theoretical justification to 
         calculate <S**2> as in Hartree-Fock theory. We will do it anyways
         but you should keep in mind that the values have only limited relevance

Expectation value of <S**2>     :     0.786853
Ideal value S*(S+1) for S=0.5   :     0.750000
Deviation                       :     0.036853

             **** THE GBW FILE WAS UPDATED (r0_C5H7O2_conf1_opt_orca.gbw) ****
             **** DENSITY r0_C5H7O2_conf1_opt_orca.scfp WAS UPDATED ****
Total SCF time: 0 days 0 hours 0 min 5 sec 

Maximum memory used throughout the entire SCF-calculation: 50.6 MB


-------------------------------------------------------------------------------
                          DFT DISPERSION CORRECTION                            
                                                                               
                              DFTD3 V3.1  Rev 1                                
                          USING Becke-Johnson damping                          
-------------------------------------------------------------------------------
-------------------------   ----------------
Dispersion correction           -0.009936605
-------------------------   ----------------


-------------------------   --------------------
FINAL SINGLE POINT ENERGY      -344.396809285582
-------------------------   --------------------



           ************************************************************
           *        Program running with 8 parallel MPI-processes     *
           *              working on a common directory               *
           ************************************************************
------------------------------------------------------------------------------
                         ORCA SCF GRADIENT CALCULATION
------------------------------------------------------------------------------

 ... reading COSX grid (gridx3)
Gradient of the Kohn-Sham DFT energy:
Kohn-Sham wavefunction type      ... UKS
Hartree-Fock exchange scaling    ...    0.250
Number of operators              ...    2
Number of atoms                  ...   14
Basis set dimensions             ...  133
Integral neglect threshold       ... 2.5e-11
Integral primitive cutoff        ... 2.5e-12
SHARK Integral package           ... ON

Nuc. rep. gradient       (SHARK) ... done (  0.0 sec)
HCore & Overlap gradient (SHARK) ... done (  0.0 sec)
RI-J gradient            (SHARK) ... done (  0.1 sec)
COSX-gradient                    ... done (  0.9 sec)
Exchange-correlation gradient    ... done
Dispersion correction            ... done

------------------
CARTESIAN GRADIENT
------------------

   1   O   :    0.001317181    0.000495655    0.001374925
   2   O   :   -0.001205300   -0.000589826   -0.001328819
   3   C   :    0.000141143    0.000346370   -0.000184829
   4   C   :    0.000120650    0.000337889    0.000157509
   5   C   :   -0.000433006   -0.000414216   -0.000206128
   6   C   :    0.000088957    0.000400606    0.000434083
   7   C   :    0.000028644   -0.000304599   -0.000214532
   8   H   :   -0.000576002   -0.000146952    0.000026001
   9   H   :    0.000064190   -0.000109904   -0.000022955
  10   H   :    0.000083387    0.000086445    0.000172768
  11   H   :    0.000189231    0.000045250    0.000025352
  12   H   :    0.000114675   -0.000130456   -0.000088133
  13   H   :   -0.000013121    0.000213221   -0.000092461
  14   H   :    0.000176915   -0.000135887    0.000164595

Difference to translation invariance:
           :    0.0000975421    0.0000935962    0.0002173747

Difference to rotation invariance:
           :   -0.0002901736    0.0001761194   -0.0000131322

Norm of the cartesian gradient     ...    0.0030472257
RMS gradient                       ...    0.0004701971
MAX gradient                       ...    0.0013749249

-------
TIMINGS
-------

Total SCF gradient time            ...        1.698 sec

One electron gradient       ....       0.016 sec  (  0.9%)
RI-J Coulomb gradient       ....       0.123 sec  (  7.2%)
COSX gradient               ....       0.880 sec  ( 51.8%)
XC gradient                 ....       0.480 sec  ( 28.3%)

Maximum memory used throughout the entire SCFGRAD-calculation: 38.8 MB
------------------------------------------------------------------------------
                         ORCA GEOMETRY RELAXATION STEP
------------------------------------------------------------------------------

Reading the OPT-File                    .... done
Getting information on internals        .... done
Copying old internal coords+grads       .... done
Making the new internal coordinates     .... (new redundants).... done
Validating the new internal coordinates .... (new redundants).... done
Calculating the B-matrix                .... done
Calculating the G,G- and P matrices     .... done
Transforming gradient to internals      .... done
Projecting the internal gradient        .... done
Number of atoms                         ....  14
Number of internal coordinates          ....  70
Current Energy                          ....  -344.396809286 Eh
Current gradient norm                   ....     0.003047226 Eh/bohr
Maximum allowed component of the step   ....  0.300
Current trust radius                    ....  0.300
Updating the Hessian (BFGS)             .... done
Forming the augmented Hessian           .... done
Diagonalizing the augmented Hessian     .... done
Last element of RFO vector              ....  0.995932868
Lowest eigenvalues of augmented Hessian:
 -0.000045913  0.001550688  0.011396796  0.016850284  0.020589538
Length of the computed step             ....  0.090466347
The final length of the internal step   ....  0.090466347
Converting the step to cartesian space:
 Initial RMS(Int)=    0.0108127966
Transforming coordinates:
 Iter   0:  RMS(Cart)=    0.0241538107 RMS(Int)=    0.0108142652
 Iter   1:  RMS(Cart)=    0.0008120219 RMS(Int)=    0.0007079149
 Iter   2:  RMS(Cart)=    0.0000666187 RMS(Int)=    0.0000341119
 Iter   3:  RMS(Cart)=    0.0000051958 RMS(Int)=    0.0000044193
 Iter   4:  RMS(Cart)=    0.0000004252 RMS(Int)=    0.0000002323
 Iter   5:  RMS(Cart)=    0.0000000336 RMS(Int)=    0.0000000276
done
Storing new coordinates                 .... done

                                .--------------------.
          ----------------------|Geometry convergence|-------------------------
          Item                value                   Tolerance       Converged
          ---------------------------------------------------------------------
          Energy change       0.0000051545            0.0000300000      YES
          RMS gradient        0.0003500283            0.0005000000      YES
          MAX gradient        0.0022170406            0.0020000000      NO
          RMS step            0.0108127966            0.0070000000      NO
          MAX step            0.0850957627            0.0100000000      NO
          ........................................................
          Max(Bonds)      0.0009      Max(Angles)    0.18
          Max(Dihed)        4.88      Max(Improp)    0.00
          ---------------------------------------------------------------------

The optimization has not yet converged - more geometry cycles are needed


    ---------------------------------------------------------------------------
                         Redundant Internal Coordinates
                            (Angstroem and degrees)

        Definition                    Value    dE/dq     Step     New-Value
    ----------------------------------------------------------------------------
     1. B(O   1,O   0)                1.4247 -0.001146  0.0009    1.4257   
     2. B(C   2,O   1)                1.4137  0.000315  0.0004    1.4141   
     3. B(C   3,C   2)                1.5005  0.000294 -0.0003    1.5003   
     4. B(C   4,C   3)                1.3886  0.000010  0.0002    1.3888   
     5. B(C   5,C   4)                1.3892 -0.000310  0.0005    1.3897   
     6. B(C   6,C   5)                1.4977  0.000039 -0.0000    1.4977   
     7. B(C   6,C   2)                1.5462  0.000266 -0.0004    1.5457   
     8. B(H   7,O   0)                0.9666  0.000151  0.0001    0.9667   
     9. B(H   8,C   2)                1.1067 -0.000070 -0.0001    1.1067   
    10. B(H   9,C   3)                1.0903  0.000140 -0.0001    1.0902   
    11. B(H  10,C   4)                1.0925  0.000184 -0.0002    1.0923   
    12. B(H  11,C   5)                1.0915  0.000197 -0.0002    1.0913   
    13. B(H  12,C   6)                1.1039  0.000096 -0.0000    1.1039   
    14. B(H  13,C   6)                1.1033  0.000121 -0.0001    1.1032   
    15. A(O   1,O   0,H   7)          100.42  0.001011   -0.04    100.38   
    16. A(O   0,O   1,C   2)          107.00  0.002217   -0.18    106.82   
    17. A(C   3,C   2,H   8)          112.29  0.000081    0.03    112.32   
    18. A(O   1,C   2,H   8)          107.75  0.000030   -0.04    107.71   
    19. A(C   3,C   2,C   6)          104.37 -0.000017   -0.01    104.36   
    20. A(O   1,C   2,C   6)          113.75  0.000261   -0.08    113.67   
    21. A(O   1,C   2,C   3)          106.82 -0.000309    0.06    106.88   
    22. A(C   6,C   2,H   8)          111.82 -0.000054    0.04    111.87   
    23. A(C   4,C   3,H   9)          126.81 -0.000000   -0.05    126.76   
    24. A(C   2,C   3,H   9)          123.16  0.000176    0.02    123.18   
    25. A(C   2,C   3,C   4)          110.01 -0.000177    0.03    110.03   
    26. A(C   3,C   4,H  10)          124.42 -0.000072    0.03    124.45   
    27. A(C   3,C   4,C   5)          111.08  0.000211   -0.03    111.05   
    28. A(C   5,C   4,H  10)          124.50 -0.000140    0.00    124.50   
    29. A(C   4,C   5,C   6)          110.15  0.000068   -0.03    110.12   
    30. A(C   6,C   5,H  11)          124.29 -0.000069    0.09    124.38   
    31. A(C   4,C   5,H  11)          125.56  0.000001   -0.07    125.49   
    32. A(C   5,C   6,H  13)          112.90 -0.000160    0.10    113.00   
    33. A(C   2,C   6,H  13)          109.73  0.000151    0.02    109.75   
    34. A(C   5,C   6,H  12)          111.80  0.000116   -0.04    111.75   
    35. A(C   2,C   6,H  12)          112.03 -0.000117    0.00    112.03   
    36. A(H  12,C   6,H  13)          106.16  0.000090   -0.11    106.05   
    37. A(C   2,C   6,C   5)          104.34 -0.000085    0.04    104.38   
    38. D(C   2,O   1,O   0,H   7)    134.40  0.000357   -4.88    129.53   
    39. D(C   6,C   2,O   1,O   0)    -73.25 -0.000209    0.34    -72.91   
    40. D(C   3,C   2,O   1,O   0)    172.16 -0.000135    0.35    172.51   
    41. D(H   8,C   2,O   1,O   0)     51.31 -0.000076    0.31     51.62   
    42. D(C   4,C   3,C   2,C   6)     -2.17 -0.000013   -0.26     -2.43   
    43. D(C   4,C   3,C   2,O   1)    118.61  0.000130   -0.32    118.28   
    44. D(H   9,C   3,C   2,C   6)    179.73  0.000008   -0.33    179.40   
    45. D(H   9,C   3,C   2,O   1)    -59.49  0.000152   -0.40    -59.89   
    46. D(H   9,C   3,C   2,H   8)     58.41  0.000041   -0.39     58.02   
    47. D(C   4,C   3,C   2,H   8)   -123.49  0.000019   -0.32   -123.80   
    48. D(C   5,C   4,C   3,C   2)      1.17  0.000041    0.09      1.25   
    49. D(C   5,C   4,C   3,H   9)    179.18  0.000022    0.16    179.34   
    50. D(H  10,C   4,C   3,H   9)     -1.18 -0.000023    0.16     -1.02   
    51. D(H  10,C   4,C   3,C   2)   -179.19 -0.000005    0.09   -179.10   
    52. D(C   6,C   5,C   4,C   3)      0.42 -0.000049    0.13      0.55   
    53. D(H  11,C   5,C   4,H  10)     -0.04 -0.000019    0.05      0.02   
    54. D(H  11,C   5,C   4,C   3)    179.61 -0.000064    0.05    179.66   
    55. D(C   6,C   5,C   4,H  10)   -179.22 -0.000004    0.13   -179.09   
    56. D(H  12,C   6,C   5,C   4)    119.55 -0.000095   -0.28    119.26   
    57. D(C   2,C   6,C   5,H  11)    179.06  0.000051   -0.20    178.86   
    58. D(C   2,C   6,C   5,C   4)     -1.74  0.000037   -0.28     -2.02   
    59. D(H  13,C   6,C   2,C   3)    123.50 -0.000174    0.47    123.97   
    60. D(H  13,C   6,C   2,O   1)      7.46  0.000077    0.44      7.90   
    61. D(H  12,C   6,C   2,H   8)      2.78  0.000020    0.40      3.17   
    62. D(H  12,C   6,C   2,C   3)   -118.85 -0.000037    0.34   -118.50   
    63. D(H  13,C   6,C   2,H   8)   -114.88 -0.000117    0.52   -114.36   
    64. D(H  12,C   6,C   2,O   1)    125.11  0.000214    0.32    125.43   
    65. D(C   5,C   6,C   2,H   8)    123.90  0.000043    0.37    124.27   
    66. D(C   5,C   6,C   2,C   3)      2.28 -0.000014    0.32      2.60   
    67. D(H  12,C   6,C   5,H  11)    -59.65 -0.000081   -0.20    -59.85   
    68. D(C   5,C   6,C   2,O   1)   -113.76  0.000238    0.29   -113.47   
    69. D(H  13,C   6,C   5,H  11)     59.97  0.000007   -0.30     59.67   
    70. D(H  13,C   6,C   5,C   4)   -120.83 -0.000007   -0.38   -121.22   
    ----------------------------------------------------------------------------




    ----------------------------------------------------------------------------
                                  WARNING !!!
       The optimization did not converge but reached the maximum number of
       optimization cycles.
       Please check your results very carefully.
    ----------------------------------------------------------------------------



                            ***************************************
                            *     ORCA property calculations      *
                            ***************************************

                                    ---------------------
                                    Active property flags
                                    ---------------------
   (+) Dipole Moment


------------------------------------------------------------------------------
                       ORCA ELECTRIC PROPERTIES CALCULATION
------------------------------------------------------------------------------

Dipole Moment Calculation                       ... on
Quadrupole Moment Calculation                   ... off
Polarizability Calculation                      ... off
GBWName                                         ... r0_C5H7O2_conf1_opt_orca.gbw
Electron density                                ... r0_C5H7O2_conf1_opt_orca.scfp
The origin for moment calculation is the CENTER OF MASS  = (-0.471003,  0.154842  0.371703)

-------------
DIPOLE MOMENT
-------------
                                X             Y             Z
Electronic contribution:     -2.16176       1.14675       2.46373
Nuclear contribution   :      2.35472      -1.29440      -2.28430
                        -----------------------------------------
Total Dipole Moment    :      0.19295      -0.14765       0.17943
                        -----------------------------------------
Magnitude (a.u.)       :      0.30204
Magnitude (Debye)      :      0.76772



--------------------
Rotational spectrum 
--------------------
 
Rotational constants in cm-1:     0.209628     0.066357     0.054683 
Rotational constants in MHz :  6284.498448  1989.344427  1639.347283 

 Dipole components along the rotational axes: 
x,y,z [a.u.] :    -0.120041    -0.023365     0.276171 
x,y,z [Debye]:    -0.305120    -0.059388     0.701972 

 

Timings for individual modules:

Sum of individual times         ...       84.370 sec (=   1.406 min)
GTO integral calculation        ...        4.372 sec (=   0.073 min)   5.2 %
SCF iterations                  ...       59.364 sec (=   0.989 min)  70.4 %
SCF Gradient evaluation         ...       20.171 sec (=   0.336 min)  23.9 %
Geometry relaxation             ...        0.463 sec (=   0.008 min)   0.5 %
                             ****ORCA TERMINATED NORMALLY****
TOTAL RUN TIME: 0 days 0 hours 1 minutes 28 seconds 65 msec
