      -----------------------------------------------------------      
     |                   =====================                   |     
     |                           x T B                           |     
     |                   =====================                   |     
     |                         S. Grimme                         |     
     |          Mulliken Center for Theoretical Chemistry        |     
     |                    University of Bonn                     |     
      -----------------------------------------------------------      

   * xtb version 6.6.1 (8d0f1dd) compiled by 'conda@1efc2f54142f' on 2023-08-01

   xtb is free software: you can redistribute it and/or modify it under
   the terms of the GNU Lesser General Public License as published by
   the Free Software Foundation, either version 3 of the License, or
   (at your option) any later version.
   
   xtb is distributed in the hope that it will be useful,
   but WITHOUT ANY WARRANTY; without even the implied warranty of
   MERCHANTABILITY or FITNESS FOR A PARTICULAR PURPOSE.  See the
   GNU Lesser General Public License for more details.
   
   Cite this work as:
   * C. Bannwarth, E. Caldeweyher, S. Ehlert, A. Hansen, P. Pracht,
     J. Seibert, S. Spicher, S. Grimme, WIREs Comput. Mol. Sci., 2020, 11,
     e01493. DOI: 10.1002/wcms.1493
   
   for GFN2-xTB:
   * C. Bannwarth, S. Ehlert and S. Grimme., J. Chem. Theory Comput., 2019,
     15, 1652-1671. DOI: 10.1021/acs.jctc.8b01176
   for GFN1-xTB:
   * S. Grimme, C. Bannwarth, P. Shushkov, J. Chem. Theory Comput., 2017,
     13, 1989-2009. DOI: 10.1021/acs.jctc.7b00118
   for GFN0-xTB:
   * P. Pracht, E. Caldeweyher, S. Ehlert, S. Grimme, ChemRxiv, 2019, preprint.
     DOI: 10.26434/chemrxiv.8326202.v1
   for GFN-FF:
   * S. Spicher and S. Grimme, Angew. Chem. Int. Ed., 2020, 59, 15665-15673.
     DOI: 10.1002/anie.202004239
   
   for ALPB and GBSA implicit solvation:
   * S. Ehlert, M. Stahn, S. Spicher, S. Grimme, J. Chem. Theory Comput.,
     2021, 17, 4250-4261. DOI: 10.1021/acs.jctc.1c00471
   
   for DFT-D4:
   * E. Caldeweyher, C. Bannwarth and S. Grimme, J. Chem. Phys., 2017,
     147, 034112. DOI: 10.1063/1.4993215
   * E. Caldeweyher, S. Ehlert, A. Hansen, H. Neugebauer, S. Spicher,
     C. Bannwarth and S. Grimme, J. Chem. Phys., 2019, 150, 154122.
     DOI: 10.1063/1.5090222
   * E. Caldeweyher, J.-M. Mewes, S. Ehlert and S. Grimme, Phys. Chem. Chem. Phys.
     2020, 22, 8499-8512. DOI: 10.1039/D0CP00502A
   
   for sTDA-xTB:
   * S. Grimme and C. Bannwarth, J. Chem. Phys., 2016, 145, 054103.
     DOI: 10.1063/1.4959605
   
   in the mass-spec context:
   * V. Asgeirsson, C. Bauer and S. Grimme, Chem. Sci., 2017, 8, 4879.
     DOI: 10.1039/c7sc00601b
   * J. Koopman and S. Grimme, ACS Omega 2019, 4, 12, 15120-15133.
     DOI: 10.1021/acsomega.9b02011
   
   for metadynamics refer to:
   * S. Grimme, J. Chem. Theory Comput., 2019, 155, 2847-2862
     DOI: 10.1021/acs.jctc.9b00143
   
   for SPH calculations refer to:
   * S. Spicher and S. Grimme, J. Chem. Theory Comput., 2021, 17, 1701-1714
     DOI: 10.1021/acs.jctc.0c01306
   
   with help from (in alphabetical order)
   P. Atkinson, C. Bannwarth, F. Bohle, G. Brandenburg, E. Caldeweyher
   M. Checinski, S. Dohm, S. Ehlert, S. Ehrlich, I. Gerasimov, C. Hölzer
   A. Katbashev, J. Koopman, C. Lavigne, S. Lehtola, F. März, M. Müller,
   F. Musil, H. Neugebauer, J. Pisarek, C. Plett, P. Pracht, F. Pultar,
   J. Seibert, P. Shushkov, S. Spicher, M. Stahn, M. Steiner, T. Strunk,
   J. Stückrath, T. Rose, and J. Unsleber
   
 * started run on 2025/05/23 at 12:03:01.429     

           -------------------------------------------------
          |                Calculation Setup                |
           -------------------------------------------------

          program call               : /gpfs/fs1/home/copan/code/autode-practice/.pixi/envs/default/bin/xtb r0_C5H7O2_conf0_opt_xtb.xyz --chrg 0 --uhf 1 --opt
          hostname                   : csed-0029
          coordinate file            : r0_C5H7O2_conf0_opt_xtb.xyz
          omp threads                :                     4

   ID    Z sym.   atoms
    1    8 O      1, 2
    2    6 C      3-7
    3    1 H      8-14

           -------------------------------------------------
          |                 G F N 2 - x T B                 |
           -------------------------------------------------

        Reference                      10.1021/acs.jctc.8b01176
      * Hamiltonian:
        H0-scaling (s, p, d)           1.850000    2.230000    2.230000
        zeta-weighting                 0.500000
      * Dispersion:
        s8                             2.700000
        a1                             0.520000
        a2                             5.000000
        s9                             5.000000
      * Repulsion:
        kExp                           1.500000    1.000000
        rExp                           1.000000
      * Coulomb:
        alpha                          2.000000
        third order                    shell-resolved
        anisotropic                    true
        a3                             3.000000
        a5                             4.000000
        cn-shift                       1.200000
        cn-exp                         4.000000
        max-rad                        5.000000


          ...................................................
          :                      SETUP                      :
          :.................................................:
          :  # basis functions                  35          :
          :  # atomic orbitals                  35          :
          :  # shells                           21          :
          :  # electrons                        39          :
          :  max. iterations                   250          :
          :  Hamiltonian                  GFN2-xTB          :
          :  restarted?                      false          :
          :  GBSA solvation                  false          :
          :  PC potential                    false          :
          :  electronic temp.          300.0000000     K    :
          :  accuracy                    1.0000000          :
          :  -> integral cutoff          0.2500000E+02      :
          :  -> integral neglect         0.1000000E-07      :
          :  -> SCF convergence          0.1000000E-05 Eh   :
          :  -> wf. convergence          0.1000000E-03 e    :
          :  Broyden damping             0.4000000          :
          ...................................................

 iter      E             dE          RMSdq      gap      omega  full diag
   1    -22.3911442 -0.223911E+02  0.442E+00    3.42       0.0  T
   2    -22.4051096 -0.139654E-01  0.262E+00    3.00       1.0  T
   3    -22.4027659  0.234374E-02  0.684E-01    3.39       1.0  T
   4    -22.4060324 -0.326657E-02  0.287E-01    2.98       1.0  T
   5    -22.4068434 -0.811010E-03  0.133E-01    3.10       1.0  T
   6    -22.4069934 -0.149998E-03  0.538E-02    3.11       1.0  T
   7    -22.4069979 -0.448009E-05  0.188E-02    3.09       1.4  T
   8    -22.4069994 -0.148736E-05  0.658E-03    3.10       4.1  T
   9    -22.4069995 -0.572555E-07  0.152E-03    3.10      17.6  T
  10    -22.4069995 -0.646379E-08  0.614E-04    3.10      43.6  T
  11    -22.4069995 -0.122278E-08  0.242E-04    3.10     110.3  T

   *** convergence criteria satisfied after 11 iterations ***

         #    Occupation            Energy/Eh            Energy/eV
      -------------------------------------------------------------
         1        2.0000           -0.7352082             -20.0060
       ...           ...                  ...                  ...
        14        2.0000           -0.4666640             -12.6986
        15        2.0000           -0.4608538             -12.5405
        16        2.0000           -0.4526994             -12.3186
        17        2.0000           -0.4393112             -11.9543
        18        2.0000           -0.4065360             -11.0624
        19        2.0000           -0.3908218             -10.6348
        20        1.0000           -0.3308569              -9.0031 (HOMO)
        21                         -0.2169494              -5.9035 (LUMO)
        22                         -0.0608225              -1.6551
        23                          0.0775859               2.1112
        24                          0.0839875               2.2854
        25                          0.0871375               2.3711
       ...                                ...                  ...
        35                          0.6364270              17.3181
      -------------------------------------------------------------
                  HL-Gap            0.1139075 Eh            3.0996 eV
             Fermi-level           -0.3173713 Eh           -8.6361 eV

 SCC (total)                   0 d,  0 h,  0 min,  0.009 sec
 SCC setup                      ...        0 min,  0.000 sec (  3.059%)
 Dispersion                     ...        0 min,  0.000 sec (  1.582%)
 classical contributions        ...        0 min,  0.000 sec (  1.280%)
 integral evaluation            ...        0 min,  0.001 sec (  7.201%)
 iterations                     ...        0 min,  0.006 sec ( 70.721%)
 molecular gradient             ...        0 min,  0.001 sec ( 13.705%)
 printout                       ...        0 min,  0.000 sec (  2.224%)

         :::::::::::::::::::::::::::::::::::::::::::::::::::::
         ::                     SUMMARY                     ::
         :::::::::::::::::::::::::::::::::::::::::::::::::::::
         :: total energy             -22.179715098150 Eh    ::
         :: gradient norm              0.136287584935 Eh/a0 ::
         :: HOMO-LUMO gap              3.099579632561 eV    ::
         ::.................................................::
         :: SCC energy               -22.406999472904 Eh    ::
         :: -> isotropic ES            0.028110892096 Eh    ::
         :: -> anisotropic ES         -0.004803288436 Eh    ::
         :: -> anisotropic XC         -0.002925911816 Eh    ::
         :: -> dispersion             -0.008984713251 Eh    ::
         :: repulsion energy           0.227267842845 Eh    ::
         :: add. restraining           0.000000000000 Eh    ::
         :: total charge               0.000000000000 e     ::
         :::::::::::::::::::::::::::::::::::::::::::::::::::::

      ----------------------------------------------------------- 
     |                   =====================                   |
     |                        A N C O P T                        |
     |                   =====================                   |
     |               Approximate Normal Coordinate               |
     |                Rational Function Optimizer                |
      ----------------------------------------------------------- 

          ...................................................
          :                      SETUP                      :
          :.................................................:
          :   optimization level            normal          :
          :   max. optcycles                   200          :
          :   ANC micro-cycles                  20          :
          :   degrees of freedom                36          :
          :.................................................:
          :   RF solver                   davidson          :
          :   write xtbopt.log                true          :
          :   linear?                        false          :
          :   energy convergence         0.5000000E-05 Eh   :
          :   grad. convergence          0.1000000E-02 Eh/α :
          :   maxmium RF displ.          1.0000000          :
          :   Hlow (freq-cutoff)         0.1000000E-01      :
          :   Hmax (freq-cutoff)         5.0000000          :
          :   S6 in model hess.         20.0000000          :
          ...................................................

generating ANC from model Hessian ...
Using Lindh-Hessian (1995)
 Shifting diagonal of input Hessian by    3.5666418359119887E-003
 Lowest  eigenvalues of input Hessian
    0.000000    0.000000    0.000000    0.000000    0.000000    0.000000
    0.010000    0.010788    0.018729    0.022281    0.028141    0.042260
    0.046271    0.056597    0.057347    0.062811    0.072408    0.079852
 Highest eigenvalues
    1.231849    1.296595    1.405257    1.514564    1.688447    1.863904


........................................................................
.............................. CYCLE    1 ..............................
........................................................................

 iter      E             dE          RMSdq      gap      omega  full diag
   1    -22.4069995 -0.224070E+02  0.130E-04    3.10       0.0  T
   2    -22.4069995 -0.437304E-10  0.942E-05    3.10     283.7  T
   3    -22.4069995 -0.584066E-11  0.753E-05    3.10     355.0  T
     SCC iter.                  ...        0 min,  0.002 sec
     gradient                   ...        0 min,  0.001 sec
 * total energy  :   -22.1797151 Eh     change       -0.2790692E-09 Eh
   gradient norm :     0.1362874 Eh/α   predicted     0.0000000E+00 (-100.00%)
   displ. norm   :     0.4334057 α      lambda       -0.2690205E-01
   maximum displ.:     0.2438012 α      in ANC's #2, #3, #16, ...

........................................................................
.............................. CYCLE    2 ..............................
........................................................................

 iter      E             dE          RMSdq      gap      omega  full diag
   1    -22.4306606 -0.224307E+02  0.588E-01    2.83       0.0  T
   2    -22.4307270 -0.663825E-04  0.355E-01    2.86       1.0  T
   3    -22.4304643  0.262668E-03  0.146E-01    2.83       1.0  T
   4    -22.4307597 -0.295366E-03  0.266E-02    2.86       1.0  T
   5    -22.4307637 -0.401320E-05  0.868E-03    2.86       3.1  T
   6    -22.4307639 -0.265506E-06  0.338E-03    2.86       7.9  T
   7    -22.4307640 -0.217616E-07  0.158E-03    2.86      16.9  T
   8    -22.4307640 -0.754397E-08  0.779E-04    2.86      34.3  T
   9    -22.4307640 -0.385887E-08  0.382E-04    2.86      70.0  T
     SCC iter.                  ...        0 min,  0.004 sec
     gradient                   ...        0 min,  0.001 sec
 * total energy  :   -22.1990166 Eh     change       -0.1930152E-01 Eh
   gradient norm :     0.0620559 Eh/α   predicted    -0.1597767E-01 ( -17.22%)
   displ. norm   :     0.5046183 α      lambda       -0.1367573E-01
   maximum displ.:     0.3220575 α      in ANC's #3, #2, #5, ...

........................................................................
.............................. CYCLE    3 ..............................
........................................................................

 iter      E             dE          RMSdq      gap      omega  full diag
   1    -22.4443280 -0.224443E+02  0.583E-01    2.82       0.0  T
   2    -22.4443709 -0.429769E-04  0.344E-01    2.88       1.0  T
   3    -22.4437015  0.669476E-03  0.238E-01    2.81       1.0  T
   4    -22.4444798 -0.778303E-03  0.255E-02    2.86       1.0  T
   5    -22.4444841 -0.429999E-05  0.108E-02    2.87       2.5  T
   6    -22.4444847 -0.593074E-06  0.359E-03    2.86       7.4  T
   7    -22.4444847 -0.323877E-07  0.171E-03    2.86      15.6  T
   8    -22.4444847 -0.836311E-08  0.805E-04    2.86      33.2  T
   9    -22.4444847 -0.265812E-08  0.316E-04    2.86      84.5  T
     SCC iter.                  ...        0 min,  0.004 sec
     gradient                   ...        0 min,  0.001 sec
 * total energy  :   -22.2091140 Eh     change       -0.1009739E-01 Eh
   gradient norm :     0.0431310 Eh/α   predicted    -0.8579068E-02 ( -15.04%)
   displ. norm   :     0.4819589 α      lambda       -0.8801977E-02
   maximum displ.:     0.3474063 α      in ANC's #3, #2, #26, ...

........................................................................
.............................. CYCLE    4 ..............................
........................................................................

 iter      E             dE          RMSdq      gap      omega  full diag
   1    -22.4528945 -0.224529E+02  0.532E-01    2.91       0.0  T
   2    -22.4528981 -0.356936E-05  0.312E-01    2.96       1.0  T
   3    -22.4521923  0.705858E-03  0.261E-01    2.90       1.0  T
   4    -22.4530711 -0.878847E-03  0.225E-02    2.94       1.2  T
   5    -22.4530749 -0.381678E-05  0.936E-03    2.95       2.9  T
   6    -22.4530753 -0.401584E-06  0.303E-03    2.95       8.8  T
   7    -22.4530753 -0.186671E-07  0.120E-03    2.95      22.2  T
   8    -22.4530753 -0.378195E-08  0.521E-04    2.95      51.3  T
   9    -22.4530753 -0.665491E-09  0.157E-04    2.95     170.7  T
     SCC iter.                  ...        0 min,  0.004 sec
     gradient                   ...        0 min,  0.001 sec
 * total energy  :   -22.2160070 Eh     change       -0.6892974E-02 Eh
   gradient norm :     0.0456993 Eh/α   predicted    -0.5423275E-02 ( -21.32%)
   displ. norm   :     0.5403469 α      lambda       -0.8239547E-02
   maximum displ.:     0.3811612 α      in ANC's #3, #2, #5, ...

........................................................................
.............................. CYCLE    5 ..............................
........................................................................

 iter      E             dE          RMSdq      gap      omega  full diag
   1    -22.4601661 -0.224602E+02  0.544E-01    3.08       0.0  T
   2    -22.4601679 -0.172256E-05  0.312E-01    3.13       1.0  T
   3    -22.4594443  0.723561E-03  0.262E-01    3.09       1.0  T
   4    -22.4603232 -0.878883E-03  0.258E-02    3.12       1.0  T
   5    -22.4603301 -0.694823E-05  0.735E-03    3.12       3.6  T
   6    -22.4603303 -0.171223E-06  0.268E-03    3.12      10.0  T
   7    -22.4603303 -0.570524E-08  0.933E-04    3.12      28.6  T
   8    -22.4603303 -0.308245E-08  0.366E-04    3.12      73.1  T
     SCC iter.                  ...        0 min,  0.003 sec
     gradient                   ...        0 min,  0.001 sec
 * total energy  :   -22.2226136 Eh     change       -0.6606571E-02 Eh
   gradient norm :     0.0511273 Eh/α   predicted    -0.5322640E-02 ( -19.43%)
   displ. norm   :     0.5173250 α      lambda       -0.9279940E-02
   maximum displ.:     0.3236204 α      in ANC's #3, #26, #2, ...

........................................................................
.............................. CYCLE    6 ..............................
........................................................................

 iter      E             dE          RMSdq      gap      omega  full diag
   1    -22.4770224 -0.224770E+02  0.481E-01    3.29       0.0  T
   2    -22.4770262 -0.381380E-05  0.289E-01    3.32       1.0  T
   3    -22.4764856  0.540691E-03  0.211E-01    3.31       1.0  T
   4    -22.4771209 -0.635352E-03  0.207E-02    3.32       1.3  T
   5    -22.4771249 -0.396648E-05  0.839E-03    3.32       3.2  T
   6    -22.4771251 -0.182775E-06  0.221E-03    3.32      12.1  T
   7    -22.4771251 -0.808396E-08  0.840E-04    3.32      31.8  T
   8    -22.4771251 -0.133012E-08  0.291E-04    3.32      91.8  T
     SCC iter.                  ...        0 min,  0.003 sec
     gradient                   ...        0 min,  0.001 sec
 * total energy  :   -22.2286287 Eh     change       -0.6015176E-02 Eh
   gradient norm :     0.0485364 Eh/α   predicted    -0.5881725E-02 (  -2.22%)
   displ. norm   :     0.7405420 α      lambda       -0.1206143E-01
   maximum displ.:     0.4406675 α      in ANC's #3, #2, #26, ...

........................................................................
.............................. CYCLE    7 ..............................
........................................................................

 iter      E             dE          RMSdq      gap      omega  full diag
   1    -22.4696772 -0.224697E+02  0.742E-01    3.57       0.0  T
   2    -22.4697287 -0.515087E-04  0.428E-01    3.59       1.0  T
   3    -22.4691820  0.546683E-03  0.219E-01    3.57       1.0  T
   4    -22.4697915 -0.609462E-03  0.279E-02    3.58       1.0  T
   5    -22.4697978 -0.629337E-05  0.166E-02    3.59       1.6  T
   6    -22.4697994 -0.160373E-05  0.484E-03    3.58       5.5  T
   7    -22.4697994 -0.496930E-07  0.112E-03    3.58      23.9  T
   8    -22.4697994 -0.134077E-08  0.271E-04    3.58      98.7  T
   9    -22.4697994 -0.198771E-09  0.110E-04    3.58     243.4  T
     SCC iter.                  ...        0 min,  0.004 sec
     gradient                   ...        0 min,  0.001 sec
 * total energy  :   -22.2299720 Eh     change       -0.1343305E-02 Eh
   gradient norm :     0.0813847 Eh/α   predicted    -0.9337949E-02 ( 595.15%)
   displ. norm   :     0.2247021 α      lambda       -0.9638834E-02
   maximum displ.:     0.1219147 α      in ANC's #3, #10, #6, ...

........................................................................
.............................. CYCLE    8 ..............................
........................................................................

 iter      E             dE          RMSdq      gap      omega  full diag
   1    -22.4773466 -0.224773E+02  0.287E-01    3.51       0.0  T
   2    -22.4773515 -0.492270E-05  0.173E-01    3.50       1.0  T
   3    -22.4772679  0.835927E-04  0.155E-01    3.51       1.0  T
   4    -22.4774988 -0.230861E-03  0.137E-02    3.51       2.0  T
   5    -22.4774992 -0.387169E-06  0.640E-03    3.50       4.2  T
   6    -22.4774994 -0.259301E-06  0.341E-03    3.50       7.8  T
   7    -22.4774995 -0.342646E-07  0.784E-04    3.50      34.1  T
   8    -22.4774995 -0.226261E-08  0.408E-04    3.50      65.6  T
     SCC iter.                  ...        0 min,  0.003 sec
     gradient                   ...        0 min,  0.001 sec
 * total energy  :   -22.2355199 Eh     change       -0.5547884E-02 Eh
   gradient norm :     0.0255866 Eh/α   predicted    -0.5062756E-02 (  -8.74%)
   displ. norm   :     0.3469624 α      lambda       -0.3238438E-02
   maximum displ.:     0.2549953 α      in ANC's #1, #4, #2, ...

........................................................................
.............................. CYCLE    9 ..............................
........................................................................

 iter      E             dE          RMSdq      gap      omega  full diag
   1    -22.4828671 -0.224829E+02  0.244E-01    3.59       0.0  T
   2    -22.4828697 -0.266351E-05  0.145E-01    3.59       1.0  T
   3    -22.4828690  0.717359E-06  0.138E-02    3.60       1.9  T
   4    -22.4828707 -0.168394E-05  0.636E-03    3.60       4.2  T
   5    -22.4828709 -0.199402E-06  0.391E-03    3.60       6.8  T
   6    -22.4828710 -0.895580E-07  0.113E-03    3.60      23.6  T
   7    -22.4828710 -0.734456E-08  0.531E-04    3.60      50.3  T
   8    -22.4828710 -0.114029E-08  0.236E-04    3.60     113.4  T
     SCC iter.                  ...        0 min,  0.003 sec
     gradient                   ...        0 min,  0.001 sec
 * total energy  :   -22.2377938 Eh     change       -0.2273872E-02 Eh
   gradient norm :     0.0192990 Eh/α   predicted    -0.1814149E-02 ( -20.22%)
   displ. norm   :     0.5322659 α      lambda       -0.4031884E-02
   maximum displ.:     0.2753416 α      in ANC's #2, #1, #26, ...

........................................................................
.............................. CYCLE   10 ..............................
........................................................................

 iter      E             dE          RMSdq      gap      omega  full diag
   1    -22.4902441 -0.224902E+02  0.461E-01    3.67       0.0  T
   2    -22.4902600 -0.159178E-04  0.277E-01    3.67       1.0  T
   3    -22.4902575  0.245470E-05  0.326E-02    3.67       1.0  T
   4    -22.4902662 -0.861679E-05  0.171E-02    3.67       1.6  T
   5    -22.4902677 -0.155746E-05  0.925E-03    3.67       2.9  T
   6    -22.4902682 -0.451478E-06  0.302E-03    3.67       8.8  T
   7    -22.4902682 -0.404738E-07  0.774E-04    3.67      34.5  T
   8    -22.4902682 -0.318278E-08  0.268E-04    3.67      99.5  T
     SCC iter.                  ...        0 min,  0.003 sec
     gradient                   ...        0 min,  0.001 sec
 * total energy  :   -22.2407239 Eh     change       -0.2930150E-02 Eh
   gradient norm :     0.0191442 Eh/α   predicted    -0.2587077E-02 ( -11.71%)
   displ. norm   :     0.6415280 α      lambda       -0.3055168E-02
   maximum displ.:     0.4081418 α      in ANC's #1, #2, #3, ...

........................................................................
.............................. CYCLE   11 ..............................
........................................................................

 iter      E             dE          RMSdq      gap      omega  full diag
   1    -22.4801857 -0.224802E+02  0.524E-01    3.64       0.0  T
   2    -22.4801958 -0.101399E-04  0.313E-01    3.65       1.0  T
   3    -22.4801336  0.621778E-04  0.640E-02    3.64       1.0  T
   4    -22.4802045 -0.708405E-04  0.150E-02    3.65       1.8  T
   5    -22.4802051 -0.659554E-06  0.669E-03    3.65       4.0  T
   6    -22.4802052 -0.969623E-07  0.203E-03    3.65      13.2  T
   7    -22.4802052 -0.187633E-07  0.865E-04    3.65      30.9  T
   8    -22.4802052 -0.263588E-08  0.397E-04    3.65      67.2  T
     SCC iter.                  ...        0 min,  0.003 sec
     gradient                   ...        0 min,  0.001 sec
 * total energy  :   -22.2418872 Eh     change       -0.1163256E-02 Eh
   gradient norm :     0.0326328 Eh/α   predicted    -0.2156271E-02 (  85.37%)
   displ. norm   :     0.2409148 α      lambda       -0.2555987E-02
   maximum displ.:     0.1486074 α      in ANC's #1, #2, #5, ...

........................................................................
.............................. CYCLE   12 ..............................
........................................................................

 iter      E             dE          RMSdq      gap      omega  full diag
   1    -22.4871073 -0.224871E+02  0.211E-01    3.62       0.0  T
   2    -22.4871133 -0.602397E-05  0.125E-01    3.61       1.0  T
   3    -22.4870726  0.406792E-04  0.552E-02    3.62       1.0  T
   4    -22.4871186 -0.459776E-04  0.893E-03    3.62       3.0  T
   5    -22.4871187 -0.142996E-06  0.434E-03    3.62       6.2  T
   6    -22.4871188 -0.296878E-07  0.180E-03    3.62      14.9  T
   7    -22.4871188 -0.999175E-08  0.591E-04    3.62      45.2  T
   8    -22.4871188 -0.102878E-08  0.217E-04    3.62     123.2  T
     SCC iter.                  ...        0 min,  0.003 sec
     gradient                   ...        0 min,  0.001 sec
 * total energy  :   -22.2435554 Eh     change       -0.1668165E-02 Eh
   gradient norm :     0.0140583 Eh/α   predicted    -0.1352171E-02 ( -18.94%)
   displ. norm   :     0.4129499 α      lambda       -0.1336594E-02
   maximum displ.:     0.2486531 α      in ANC's #1, #2, #7, ...

........................................................................
.............................. CYCLE   13 ..............................
........................................................................

 iter      E             dE          RMSdq      gap      omega  full diag
   1    -22.4880012 -0.224880E+02  0.322E-01    3.63       0.0  T
   2    -22.4880054 -0.421740E-05  0.190E-01    3.63       1.0  T
   3    -22.4879752  0.301896E-04  0.452E-02    3.63       1.0  T
   4    -22.4880092 -0.339617E-04  0.869E-03    3.63       3.1  T
   5    -22.4880094 -0.190202E-06  0.448E-03    3.63       6.0  T
   6    -22.4880094 -0.234007E-07  0.155E-03    3.63      17.2  T
   7    -22.4880094 -0.982627E-08  0.363E-04    3.63      73.6  T
   8    -22.4880094 -0.843318E-09  0.143E-04    3.63     186.5  T
     SCC iter.                  ...        0 min,  0.003 sec
     gradient                   ...        0 min,  0.001 sec
 * total energy  :   -22.2445686 Eh     change       -0.1013219E-02 Eh
   gradient norm :     0.0133437 Eh/α   predicted    -0.7822600E-03 ( -22.79%)
   displ. norm   :     0.4467928 α      lambda       -0.1167909E-02
   maximum displ.:     0.2472338 α      in ANC's #1, #2, #7, ...

........................................................................
.............................. CYCLE   14 ..............................
........................................................................

 iter      E             dE          RMSdq      gap      omega  full diag
   1    -22.4896007 -0.224896E+02  0.356E-01    3.64       0.0  T
   2    -22.4896075 -0.682772E-05  0.212E-01    3.64       1.0  T
   3    -22.4895944  0.131355E-04  0.328E-02    3.64       1.0  T
   4    -22.4896102 -0.157788E-04  0.120E-02    3.64       2.2  T
   5    -22.4896111 -0.899682E-06  0.552E-03    3.64       4.8  T
   6    -22.4896111 -0.393572E-07  0.189E-03    3.64      14.1  T
   7    -22.4896111 -0.127040E-07  0.452E-04    3.64      59.1  T
   8    -22.4896111 -0.135379E-08  0.175E-04    3.64     153.0  T
     SCC iter.                  ...        0 min,  0.003 sec
     gradient                   ...        0 min,  0.001 sec
 * total energy  :   -22.2454419 Eh     change       -0.8733384E-03 Eh
   gradient norm :     0.0109357 Eh/α   predicted    -0.7005247E-03 ( -19.79%)
   displ. norm   :     0.4092470 α      lambda       -0.9785524E-03
   maximum displ.:     0.1822386 α      in ANC's #2, #1, #4, ...

........................................................................
.............................. CYCLE   15 ..............................
........................................................................

 iter      E             dE          RMSdq      gap      omega  full diag
   1    -22.4903792 -0.224904E+02  0.306E-01    3.67       0.0  T
   2    -22.4903842 -0.499086E-05  0.183E-01    3.67       1.0  T
   3    -22.4903502  0.340098E-04  0.484E-02    3.67       1.0  T
   4    -22.4903885 -0.383868E-04  0.100E-02    3.67       2.7  T
   5    -22.4903889 -0.316168E-06  0.539E-03    3.67       5.0  T
   6    -22.4903889 -0.389934E-07  0.146E-03    3.67      18.3  T
   7    -22.4903889 -0.110990E-07  0.405E-04    3.67      65.9  T
   8    -22.4903889 -0.903487E-09  0.153E-04    3.67     174.4  T
     SCC iter.                  ...        0 min,  0.003 sec
     gradient                   ...        0 min,  0.001 sec
 * total energy  :   -22.2460261 Eh     change       -0.5842050E-03 Eh
   gradient norm :     0.0160328 Eh/α   predicted    -0.5712193E-03 (  -2.22%)
   displ. norm   :     0.3002764 α      lambda       -0.7659641E-03
   maximum displ.:     0.1568758 α      in ANC's #1, #7, #2, ...

........................................................................
.............................. CYCLE   16 ..............................
........................................................................

 iter      E             dE          RMSdq      gap      omega  full diag
   1    -22.4958890 -0.224959E+02  0.257E-01    3.68       0.0  T
   2    -22.4958958 -0.676249E-05  0.155E-01    3.68       1.0  T
   3    -22.4958937  0.205093E-05  0.209E-02    3.68       1.3  T
   4    -22.4958974 -0.365419E-05  0.107E-02    3.68       2.5  T
   5    -22.4958982 -0.786955E-06  0.559E-03    3.68       4.8  T
   6    -22.4958983 -0.133834E-06  0.166E-03    3.68      16.1  T
   7    -22.4958983 -0.128392E-07  0.456E-04    3.68      58.6  T
   8    -22.4958983 -0.119475E-08  0.204E-04    3.68     130.8  T
     SCC iter.                  ...        0 min,  0.003 sec
     gradient                   ...        0 min,  0.001 sec
 * total energy  :   -22.2463982 Eh     change       -0.3720731E-03 Eh
   gradient norm :     0.0155100 Eh/α   predicted    -0.4175125E-03 (  12.21%)
   displ. norm   :     0.3746423 α      lambda       -0.6224387E-03
   maximum displ.:     0.2345225 α      in ANC's #1, #2, #7, ...

........................................................................
.............................. CYCLE   17 ..............................
........................................................................

 iter      E             dE          RMSdq      gap      omega  full diag
   1    -22.4891995 -0.224892E+02  0.300E-01    3.58       0.0  T
   2    -22.4892134 -0.139834E-04  0.184E-01    3.59       1.0  T
   3    -22.4891548  0.586637E-04  0.635E-02    3.59       1.0  T
   4    -22.4892204 -0.656640E-04  0.140E-02    3.59       1.9  T
   5    -22.4892218 -0.131090E-05  0.639E-03    3.59       4.2  T
   6    -22.4892218 -0.374421E-07  0.185E-03    3.59      14.4  T
   7    -22.4892218 -0.506096E-08  0.559E-04    3.59      47.8  T
   8    -22.4892218 -0.528196E-09  0.237E-04    3.59     112.6  T
     SCC iter.                  ...        0 min,  0.003 sec
     gradient                   ...        0 min,  0.001 sec
 * total energy  :   -22.2464053 Eh     change       -0.7057266E-05 Eh
   gradient norm :     0.0268161 Eh/α   predicted    -0.3548960E-03 (4928.80%)
   displ. norm   :     0.1210864 α      lambda       -0.1285108E-02
   maximum displ.:     0.0709063 α      in ANC's #4, #26, #3, ...

........................................................................
.............................. CYCLE   18 ..............................
........................................................................

 iter      E             dE          RMSdq      gap      omega  full diag
   1    -22.4944828 -0.224945E+02  0.132E-01    3.67       0.0  T
   2    -22.4944870 -0.421184E-05  0.792E-02    3.67       1.0  T
   3    -22.4944566  0.303952E-04  0.497E-02    3.67       1.0  T
   4    -22.4944918 -0.351767E-04  0.582E-03    3.67       4.6  T
   5    -22.4944920 -0.172647E-06  0.269E-03    3.67       9.9  T
   6    -22.4944920 -0.232927E-07  0.125E-03    3.67      21.5  T
   7    -22.4944920 -0.448881E-08  0.447E-04    3.67      59.8  T
   8    -22.4944920 -0.448594E-09  0.185E-04    3.67     144.3  T
     SCC iter.                  ...        0 min,  0.003 sec
     gradient                   ...        0 min,  0.001 sec
 * total energy  :   -22.2470338 Eh     change       -0.6284939E-03 Eh
   gradient norm :     0.0137237 Eh/α   predicted    -0.6519741E-03 (   3.74%)
   displ. norm   :     0.1025512 α      lambda       -0.4008177E-03
   maximum displ.:     0.0691525 α      in ANC's #1, #7, #4, ...

........................................................................
.............................. CYCLE   19 ..............................
........................................................................

 iter      E             dE          RMSdq      gap      omega  full diag
   1    -22.4964406 -0.224964E+02  0.897E-02    3.67       0.0  T
   2    -22.4964420 -0.139093E-05  0.559E-02    3.67       1.0  T
   3    -22.4964307  0.112951E-04  0.281E-02    3.67       1.0  T
   4    -22.4964434 -0.126697E-04  0.496E-03    3.67       5.4  T
   5    -22.4964436 -0.195148E-06  0.227E-03    3.67      11.8  T
   6    -22.4964436 -0.792126E-08  0.885E-04    3.67      30.2  T
   7    -22.4964436 -0.163708E-08  0.292E-04    3.67      91.5  T
     SCC iter.                  ...        0 min,  0.003 sec
     gradient                   ...        0 min,  0.001 sec
 * total energy  :   -22.2472943 Eh     change       -0.2605441E-03 Eh
   gradient norm :     0.0072952 Eh/α   predicted    -0.2025178E-03 ( -22.27%)
   displ. norm   :     0.3038600 α      lambda       -0.4281780E-03
   maximum displ.:     0.1752056 α      in ANC's #1, #7, #4, ...

........................................................................
.............................. CYCLE   20 ..............................
........................................................................

 iter      E             dE          RMSdq      gap      omega  full diag
   1    -22.4953009 -0.224953E+02  0.215E-01    3.65       0.0  T
   2    -22.4953055 -0.464437E-05  0.132E-01    3.65       1.0  T
   3    -22.4952978  0.772385E-05  0.260E-02    3.65       1.0  T
   4    -22.4953076 -0.976200E-05  0.961E-03    3.65       2.8  T
   5    -22.4953082 -0.621069E-06  0.495E-03    3.65       5.4  T
   6    -22.4953082 -0.358295E-07  0.708E-04    3.65      37.7  T
   7    -22.4953082 -0.183526E-08  0.295E-04    3.65      90.7  T
     SCC iter.                  ...        0 min,  0.003 sec
     gradient                   ...        0 min,  0.001 sec
 * total energy  :   -22.2475876 Eh     change       -0.2933099E-03 Eh
   gradient norm :     0.0055458 Eh/α   predicted    -0.2338607E-03 ( -20.27%)
   displ. norm   :     0.2945410 α      lambda       -0.3153122E-03
   maximum displ.:     0.1723990 α      in ANC's #1, #7, #4, ...
 * RMSD in coord.:     1.6046519 α      energy gain  -0.6787251E-01 Eh

generating ANC from model Hessian ...
Using Lindh-Hessian (1995)
 Shifting diagonal of input Hessian by    5.0717690389833984E-003
 Lowest  eigenvalues of input Hessian
    0.000000    0.000000    0.000000    0.000000    0.000000    0.000000
    0.010000    0.012400    0.020134    0.024857    0.028538    0.038328
    0.052529    0.053710    0.059636    0.065785    0.080892    0.086396
 Highest eigenvalues
    1.286818    1.373211    1.433885    1.492657    1.752783    1.852395


........................................................................
.............................. CYCLE   21 ..............................
........................................................................

 iter      E             dE          RMSdq      gap      omega  full diag
   1    -22.4964828 -0.224965E+02  0.218E-01    3.62       0.0  T
   2    -22.4964885 -0.570525E-05  0.135E-01    3.62       1.0  T
   3    -22.4964742  0.142586E-04  0.342E-02    3.63       1.0  T
   4    -22.4964921 -0.179194E-04  0.903E-03    3.62       3.0  T
   5    -22.4964924 -0.314670E-06  0.455E-03    3.62       5.9  T
   6    -22.4964925 -0.407245E-07  0.125E-03    3.62      21.4  T
   7    -22.4964925 -0.503962E-08  0.466E-04    3.62      57.3  T
   8    -22.4964925 -0.106210E-08  0.149E-04    3.62     179.2  T
     SCC iter.                  ...        0 min,  0.003 sec
     gradient                   ...        0 min,  0.001 sec
 * total energy  :   -22.2476950 Eh     change       -0.1073543E-03 Eh
   gradient norm :     0.0116134 Eh/α   predicted     0.0000000E+00 (-100.00%)
   displ. norm   :     0.0687913 α      lambda       -0.2297824E-03
   maximum displ.:     0.0532910 α      in ANC's #1, #5, #6, ...

........................................................................
.............................. CYCLE   22 ..............................
........................................................................

 iter      E             dE          RMSdq      gap      omega  full diag
   1    -22.4963791 -0.224964E+02  0.694E-02    3.65       0.0  T
   2    -22.4963799 -0.854956E-06  0.427E-02    3.65       1.0  T
   3    -22.4963750  0.497768E-05  0.183E-02    3.65       1.5  T
   4    -22.4963805 -0.552794E-05  0.302E-03    3.65       8.8  T
   5    -22.4963805 -0.514491E-07  0.148E-03    3.65      18.0  T
   6    -22.4963805 -0.483267E-08  0.650E-04    3.65      41.1  T
   7    -22.4963805 -0.610036E-09  0.236E-04    3.65     113.0  T
     SCC iter.                  ...        0 min,  0.003 sec
     gradient                   ...        0 min,  0.001 sec
 * total energy  :   -22.2478596 Eh     change       -0.1646521E-03 Eh
   gradient norm :     0.0050479 Eh/α   predicted    -0.1154340E-03 ( -29.89%)
   displ. norm   :     0.0826838 α      lambda       -0.1058775E-03
   maximum displ.:     0.0678468 α      in ANC's #1, #4, #2, ...

........................................................................
.............................. CYCLE   23 ..............................
........................................................................

 iter      E             dE          RMSdq      gap      omega  full diag
   1    -22.4963244 -0.224963E+02  0.822E-02    3.67       0.0  T
   2    -22.4963255 -0.105187E-05  0.511E-02    3.67       1.0  T
   3    -22.4963208  0.467700E-05  0.180E-02    3.67       1.5  T
   4    -22.4963261 -0.530788E-05  0.379E-03    3.67       7.0  T
   5    -22.4963262 -0.836049E-07  0.187E-03    3.67      14.3  T
   6    -22.4963262 -0.553737E-08  0.627E-04    3.67      42.6  T
   7    -22.4963262 -0.472713E-09  0.164E-04    3.67     162.6  T
     SCC iter.                  ...        0 min,  0.003 sec
     gradient                   ...        0 min,  0.001 sec
 * total energy  :   -22.2479247 Eh     change       -0.6508907E-04 Eh
   gradient norm :     0.0016983 Eh/α   predicted    -0.5329972E-04 ( -18.11%)
   displ. norm   :     0.0812916 α      lambda       -0.2621676E-04
   maximum displ.:     0.0657856 α      in ANC's #1, #4, #2, ...

........................................................................
.............................. CYCLE   24 ..............................
........................................................................

 iter      E             dE          RMSdq      gap      omega  full diag
   1    -22.4963229 -0.224963E+02  0.848E-02    3.67       0.0  T
   2    -22.4963239 -0.989468E-06  0.536E-02    3.67       1.0  T
   3    -22.4963212  0.264236E-05  0.141E-02    3.67       1.9  T
   4    -22.4963245 -0.330157E-05  0.325E-03    3.67       8.2  T
   5    -22.4963246 -0.617159E-07  0.160E-03    3.67      16.7  T
   6    -22.4963246 -0.258316E-08  0.366E-04    3.67      73.0  T
   7    -22.4963246 -0.220041E-09  0.112E-04    3.67     239.0  T
     SCC iter.                  ...        0 min,  0.003 sec
     gradient                   ...        0 min,  0.001 sec
 * total energy  :   -22.2479536 Eh     change       -0.2892803E-04 Eh
   gradient norm :     0.0017250 Eh/α   predicted    -0.1314795E-04 ( -54.55%)
   displ. norm   :     0.0814535 α      lambda       -0.2109486E-04
   maximum displ.:     0.0639597 α      in ANC's #1, #4, #5, ...

........................................................................
.............................. CYCLE   25 ..............................
........................................................................

 iter      E             dE          RMSdq      gap      omega  full diag
   1    -22.4963797 -0.224964E+02  0.902E-02    3.67       0.0  T
   2    -22.4963809 -0.120101E-05  0.572E-02    3.67       1.0  T
   3    -22.4963802  0.676671E-06  0.944E-03    3.67       2.8  T
   4    -22.4963816 -0.136442E-05  0.328E-03    3.67       8.2  T
   5    -22.4963816 -0.770549E-07  0.143E-03    3.67      18.7  T
   6    -22.4963816 -0.173423E-08  0.400E-04    3.67      66.8  T
   7    -22.4963817 -0.558156E-09  0.123E-04    3.67     216.9  T
     SCC iter.                  ...        0 min,  0.003 sec
     gradient                   ...        0 min,  0.001 sec
 * total energy  :   -22.2479739 Eh     change       -0.2025267E-04 Eh
   gradient norm :     0.0018227 Eh/α   predicted    -0.1057742E-04 ( -47.77%)
   displ. norm   :     0.0501922 α      lambda       -0.8465316E-05
   maximum displ.:     0.0419010 α      in ANC's #1, #4, #2, ...

........................................................................
.............................. CYCLE   26 ..............................
........................................................................

 iter      E             dE          RMSdq      gap      omega  full diag
   1    -22.4965104 -0.224965E+02  0.469E-02    3.67       0.0  T
   2    -22.4965107 -0.272949E-06  0.293E-02    3.67       1.0  T
   3    -22.4965104  0.249772E-06  0.531E-03    3.67       5.0  T
   4    -22.4965109 -0.413629E-06  0.190E-03    3.67      14.1  T
   5    -22.4965109 -0.180298E-07  0.772E-04    3.67      34.6  T
   6    -22.4965109 -0.714113E-09  0.231E-04    3.67     115.7  T
     SCC iter.                  ...        0 min,  0.003 sec
     gradient                   ...        0 min,  0.001 sec
 * total energy  :   -22.2479834 Eh     change       -0.9524446E-05 Eh
   gradient norm :     0.0011237 Eh/α   predicted    -0.4237805E-05 ( -55.51%)
   displ. norm   :     0.0665189 α      lambda       -0.7482500E-05
   maximum displ.:     0.0488261 α      in ANC's #1, #2, #4, ...

........................................................................
.............................. CYCLE   27 ..............................
........................................................................

 iter      E             dE          RMSdq      gap      omega  full diag
   1    -22.4964693 -0.224965E+02  0.590E-02    3.67       0.0  T
   2    -22.4964697 -0.401903E-06  0.365E-02    3.67       1.0  T
   3    -22.4964690  0.769986E-06  0.824E-03    3.67       3.2  T
   4    -22.4964700 -0.104131E-05  0.252E-03    3.67      10.6  T
   5    -22.4964700 -0.220502E-07  0.108E-03    3.67      24.7  T
   6    -22.4964700 -0.225602E-08  0.263E-04    3.67     101.5  T
   7    -22.4964700 -0.229836E-09  0.900E-05    3.67     296.8  T
     SCC iter.                  ...        0 min,  0.003 sec
     gradient                   ...        0 min,  0.001 sec
 * total energy  :   -22.2479907 Eh     change       -0.7334343E-05 Eh
   gradient norm :     0.0005234 Eh/α   predicted    -0.3749066E-05 ( -48.88%)
   displ. norm   :     0.0367587 α      lambda       -0.2457113E-05
   maximum displ.:     0.0253113 α      in ANC's #2, #1, #4, ...

........................................................................
.............................. CYCLE   28 ..............................
........................................................................

 iter      E             dE          RMSdq      gap      omega  full diag
   1    -22.4965565 -0.224966E+02  0.263E-02    3.67       0.0  T
   2    -22.4965566 -0.800468E-07  0.158E-02    3.67       1.7  T
   3    -22.4965565  0.107955E-06  0.313E-03    3.67       8.5  T
   4    -22.4965566 -0.133252E-06  0.123E-03    3.67      21.7  T
   5    -22.4965567 -0.124849E-07  0.572E-04    3.67      46.8  T
   6    -22.4965567 -0.524121E-09  0.131E-04    3.67     203.9  T
     SCC iter.                  ...        0 min,  0.003 sec
     gradient                   ...        0 min,  0.001 sec
 * total energy  :   -22.2479930 Eh     change       -0.2275263E-05 Eh
   gradient norm :     0.0005104 Eh/α   predicted    -0.1227917E-05 ( -46.03%)
   displ. norm   :     0.0193920 α      lambda       -0.8936565E-06
   maximum displ.:     0.0135751 α      in ANC's #2, #1, #4, ...

   *** GEOMETRY OPTIMIZATION CONVERGED AFTER 28 ITERATIONS ***

------------------------------------------------------------------------
 total energy gain   :        -0.0682779 Eh      -42.8450 kcal/mol
 total RMSD          :         1.5574429 a0        0.8242 Å
 total power (kW/mol):        -6.4022735 (step)-1206.5786 (real)
------------------------------------------------------------------------

 ANCopt (total)                0 d,  0 h,  0 min,  0.149 sec
 optimizer setup                ...        0 min,  0.000 sec (  0.089%)
 model hessian                  ...        0 min,  0.005 sec (  3.664%)
 ANC generation                 ...        0 min,  0.001 sec (  0.386%)
 coordinate transformation      ...        0 min,  0.000 sec (  0.079%)
 single point calculation       ...        0 min,  0.134 sec ( 90.012%)
 optimization log               ...        0 min,  0.002 sec (  1.418%)
 hessian update                 ...        0 min,  0.000 sec (  0.182%)
 rational function              ...        0 min,  0.003 sec (  1.837%)

================
 final structure:
================
14
 xtb: 6.6.1 (8d0f1dd)
O            2.50444115003409       -0.72610555074914        0.83682491874693
O            1.68833452170922        0.35318593934419        0.36542026658051
C            0.33051591033165        0.06708707534520        0.62043164027355
C           -0.46176196986383        1.29648925706214        0.30375545411809
C           -1.44263839583320        1.00222947697899       -0.61663820187632
C           -1.39849856769227       -0.32232398546516       -0.98646784325391
C           -0.27308769811734       -1.01707052018671       -0.30156154407637
H            3.38817583742787       -0.34110354216370        0.78688452296674
H            0.23500520844948       -0.21607809193090        1.68192896466349
H           -0.24144977932325        2.25027895011349        0.74028520225280
H           -2.15310616478799        1.71886334438853       -0.99111491853368
H           -2.05648440056788       -0.81566294207316       -1.67695396511828
H           -0.60431446405511       -1.89764204462225        0.25290317231173
H            0.48466881228872       -1.35214736604157       -1.01569766905529

 Bond Distances (Angstroems)
 ---------------------------
O1-O2=1.4329         O1-H8=0.9653         O2-O1=1.4329         O2-C3=1.4109         C3-O2=1.4109         C3-C4=1.4965         
C3-C7=1.5459         C3-H9=1.1028         C4-C3=1.4965         C4-C5=1.3769         C4-H10=1.0718        C5-C4=1.3769         
C5-C6=1.3759         C5-H11=1.0764        C6-C5=1.3759         C6-C7=1.4894         C6-H12=1.0738        C7-C3=1.5459         
C7-C6=1.4894         C7-H13=1.0920        C7-H14=1.0938        H8-O1=0.9653         H9-C3=1.1028         H10-C4=1.0718        
H11-C5=1.0764        H12-C6=1.0738        H13-C7=1.0920        H14-C7=1.0938        
 C  H  Rav=1.0851 sigma=0.0117  Rmin=1.0718  Rmax=1.1028     6
 C  C  Rav=1.4569 sigma=0.0686  Rmin=1.3759  Rmax=1.5459     5
 O  H  Rav=0.9653 sigma=0.0000  Rmin=0.9653  Rmax=0.9653     1
 O  C  Rav=1.4109 sigma=0.0000  Rmin=1.4109  Rmax=1.4109     1
 O  O  Rav=1.4329 sigma=0.0000  Rmin=1.4329  Rmax=1.4329     1

 selected bond angles (degree)
 --------------------
H8-O1-O2=101.77                C3-O2-O1=109.63                C4-C3-O2=107.74                C7-C3-O2=114.22                
C7-C3-C4=104.08                H9-C3-O2=108.02                H9-C3-C4=111.64                H9-C3-C7=111.11                
C5-C4-C3=110.06                H10-C4-C3=122.42               H10-C4-C5=127.51               C6-C5-C4=111.26                
H11-C5-C4=124.09               H11-C5-C6=124.65               C7-C6-C5=110.47                H12-C6-C5=126.54               
H12-C6-C7=122.98               C6-C7-C3=104.01                H13-C7-C3=112.40               H13-C7-C6=112.36               
H14-C7-C3=109.50               H14-C7-C6=111.48               H14-C7-H13=107.13              

 selected dihedral angles (degree)
 ---------------------------------
C3-O2-O1-H8=191.73            C4-C3-O2-O1=171.66            C7-C3-O2-O1=286.74            H9-C3-O2-O1= 50.91            
C5-C4-C3-O2=124.26            C5-C4-C3-C7=  2.64            C5-C4-C3-H9=242.71            H10-C4-C3-O2=305.59           
H10-C4-C3-C7=183.98           H10-C4-C3-H9= 64.04           C6-C5-C4-C3=359.27            C6-C5-C4-H10=177.84           
H11-C5-C4-C3=178.96           H11-C5-C4-H10=357.54          C7-C6-C5-C4=358.36            C7-C6-C5-H11=178.67           
H12-C6-C5-C4=179.12           H12-C6-C5-H11=359.42          C6-C7-C3-O2=239.42            C6-C7-C3-C4=356.63            
C6-C7-C3-H9=116.92            H13-C7-C3-O2=117.62           H13-C7-C3-C4=234.82           H13-C7-C3-H9=355.11           
H14-C7-C3-O2=358.67           H14-C7-C3-C4=115.88           H14-C7-C3-H9=236.17           C3-C7-C6-C5=  3.17            
C3-C7-C6-H12=182.45           H13-C7-C6-C5=125.00           H13-C7-C6-H12=304.28          H14-C7-C6-C5=245.28           
H14-C7-C6-H12= 64.56          
           -------------------------------------------------
          |                Final Singlepoint                |
           -------------------------------------------------

          ...................................................
          :                      SETUP                      :
          :.................................................:
          :  # basis functions                  35          :
          :  # atomic orbitals                  35          :
          :  # shells                           21          :
          :  # electrons                        39          :
          :  max. iterations                   250          :
          :  Hamiltonian                  GFN2-xTB          :
          :  restarted?                      false          :
          :  GBSA solvation                  false          :
          :  PC potential                    false          :
          :  electronic temp.          300.0000000     K    :
          :  accuracy                    1.0000000          :
          :  -> integral cutoff          0.2500000E+02      :
          :  -> integral neglect         0.1000000E-07      :
          :  -> SCF convergence          0.1000000E-05 Eh   :
          :  -> wf. convergence          0.1000000E-03 e    :
          :  Broyden damping             0.4000000          :
          ...................................................

 iter      E             dE          RMSdq      gap      omega  full diag
   1    -22.4965567 -0.224966E+02  0.449E-05    3.67       0.0  T
   2    -22.4965567 -0.892442E-11  0.260E-05    3.67    1028.3  T
   3    -22.4965567 -0.308731E-11  0.163E-05    3.67    1637.8  T

   *** convergence criteria satisfied after 3 iterations ***

         #    Occupation            Energy/Eh            Energy/eV
      -------------------------------------------------------------
         1        2.0000           -0.7175335             -19.5251
       ...           ...                  ...                  ...
        14        2.0000           -0.4639053             -12.6235
        15        2.0000           -0.4590188             -12.4905
        16        2.0000           -0.4547761             -12.3751
        17        2.0000           -0.4505897             -12.2612
        18        2.0000           -0.4323109             -11.7638
        19        2.0000           -0.4040320             -10.9943
        20        1.0000           -0.3165662              -8.6142 (HOMO)
        21                         -0.1815961              -4.9415 (LUMO)
        22                         -0.1458431              -3.9686
        23                          0.0639350               1.7398
        24                          0.0806297               2.1940
        25                          0.1144750               3.1150
       ...                                ...                  ...
        35                          0.6194240              16.8554
      -------------------------------------------------------------
                  HL-Gap            0.1349701 Eh            3.6727 eV
             Fermi-level           -0.3046901 Eh           -8.2910 eV

 SCC (total)                   0 d,  0 h,  0 min,  0.003 sec
 SCC setup                      ...        0 min,  0.000 sec (  2.633%)
 Dispersion                     ...        0 min,  0.000 sec (  1.372%)
 classical contributions        ...        0 min,  0.000 sec (  0.307%)
 integral evaluation            ...        0 min,  0.000 sec ( 12.210%)
 iterations                     ...        0 min,  0.002 sec ( 48.548%)
 molecular gradient             ...        0 min,  0.001 sec ( 30.572%)
 printout                       ...        0 min,  0.000 sec (  3.912%)

         :::::::::::::::::::::::::::::::::::::::::::::::::::::
         ::                     SUMMARY                     ::
         :::::::::::::::::::::::::::::::::::::::::::::::::::::
         :: total energy             -22.247993019149 Eh    ::
         :: gradient norm              0.000510640078 Eh/a0 ::
         :: HOMO-LUMO gap              3.672724554583 eV    ::
         ::.................................................::
         :: SCC energy               -22.496556658513 Eh    ::
         :: -> isotropic ES            0.029202573832 Eh    ::
         :: -> anisotropic ES         -0.004962210135 Eh    ::
         :: -> anisotropic XC          0.000676932476 Eh    ::
         :: -> dispersion             -0.008639471017 Eh    ::
         :: repulsion energy           0.248552616258 Eh    ::
         :: add. restraining           0.000000000000 Eh    ::
         :: total charge               0.000000000000 e     ::
         :::::::::::::::::::::::::::::::::::::::::::::::::::::

           -------------------------------------------------
          |                Property Printout                |
           -------------------------------------------------

    * Orbital Energies and Occupations

         #    Occupation            Energy/Eh            Energy/eV
      -------------------------------------------------------------
         1        2.0000           -0.7175335             -19.5251
       ...           ...                  ...                  ...
         8        2.0000           -0.5684488             -15.4683
         9        2.0000           -0.5467815             -14.8787
        10        2.0000           -0.5414038             -14.7323
        11        2.0000           -0.5189652             -14.1218
        12        2.0000           -0.5110081             -13.9052
        13        2.0000           -0.4779352             -13.0053
        14        2.0000           -0.4639053             -12.6235
        15        2.0000           -0.4590188             -12.4905
        16        2.0000           -0.4547761             -12.3751
        17        2.0000           -0.4505897             -12.2612
        18        2.0000           -0.4323109             -11.7638
        19        2.0000           -0.4040320             -10.9943
        20        1.0000           -0.3165662              -8.6142 (HOMO)
        21                         -0.1815961              -4.9415 (LUMO)
        22                         -0.1458431              -3.9686
        23                          0.0639350               1.7398
        24                          0.0806297               2.1940
        25                          0.1144750               3.1150
        26                          0.1314945               3.5781
        27                          0.1421058               3.8669
        28                          0.1452918               3.9536
        29                          0.1616895               4.3998
        30                          0.2088897               5.6842
        31                          0.2442218               6.6456
       ...                                ...                  ...
        35                          0.6194240              16.8554
      -------------------------------------------------------------
                  HL-Gap            0.1349701 Eh            3.6727 eV
             Fermi-level           -0.3046901 Eh           -8.2910 eV

     #   Z          covCN         q      C6AA      α(0)
     1   8 O        1.730    -0.332    19.555     5.971
     2   8 O        1.774    -0.216    17.570     5.660
     3   6 C        3.773     0.127    18.550     6.137
     4   6 C        2.975    -0.058    29.424     8.898
     5   6 C        2.945    -0.028    28.711     8.788
     6   6 C        2.976    -0.043    29.066     8.844
     7   6 C        3.845    -0.069    21.792     6.640
     8   1 H        0.805     0.318     0.668     1.284
     9   1 H        0.923     0.045     2.378     2.412
    10   1 H        0.926     0.046     2.364     2.404
    11   1 H        0.926     0.041     2.431     2.438
    12   1 H        0.926     0.039     2.455     2.450
    13   1 H        0.924     0.053     2.279     2.361
    14   1 H        0.924     0.075     2.030     2.228

 Mol. C6AA /au·bohr⁶  :       1900.788031
 Mol. C8AA /au·bohr⁸  :      43268.663596
 Mol. α(0) /au        :         66.515459


Wiberg/Mayer (AO) data.
largest (>0.10) Wiberg bond orders for each atom

 ---------------------------------------------------------------------------
     #   Z sym  total        # sym  WBO       # sym  WBO       # sym  WBO
 ---------------------------------------------------------------------------
     1   8 O    1.904 --     2 O    0.965     8 H    0.892
     2   8 O    2.012 --     3 C    0.967     1 O    0.965
     3   6 C    3.940 --     4 C    1.008     7 C    0.978     2 O    0.967
                             9 H    0.937
     4   6 C    3.780 --     5 C    1.483     3 C    1.008    10 H    0.973
                             6 C    0.205
     5   6 C    3.991 --     4 C    1.483     6 C    1.479    11 H    0.968
     6   6 C    3.790 --     5 C    1.479     7 C    1.057    12 H    0.974
                             4 C    0.205
     7   6 C    3.997 --     6 C    1.057     3 C    0.978    13 H    0.954
                            14 H    0.942
     8   1 H    0.899 --     1 O    0.892
     9   1 H    0.997 --     3 C    0.937
    10   1 H    0.998 --     4 C    0.973
    11   1 H    0.997 --     5 C    0.968
    12   1 H    0.998 --     6 C    0.974
    13   1 H    0.997 --     7 C    0.954
    14   1 H    0.994 --     7 C    0.942
 ---------------------------------------------------------------------------

Topologies differ in total number of bonds
Writing topology from bond orders to xtbtopo.mol

molecular dipole:
                 x           y           z       tot (Debye)
 q only:       -0.180      -0.044      -0.044
   full:       -0.030      -0.020       0.008       0.095
molecular quadrupole (traceless):
                xx          xy          yy          xz          yz          zz
 q only:        3.148       0.239      -1.459       0.813       0.942      -1.689
  q+dip:        3.447       1.166      -1.865       1.903       2.126      -1.582
   full:        4.135       0.955      -2.218       1.277       1.409      -1.916

           -------------------------------------------------
          |                Geometry Summary                 |
           -------------------------------------------------

      molecular mass/u    :       99.1080746
   center of mass at/Å    :        0.2739070       0.0575411       0.0730051
  moments of inertia/u·Å² :        0.7664906E+02   0.2622749E+03   0.3177221E+03
rotational constants/cm⁻¹ :        0.2199327E+00   0.6427466E-01   0.5305779E-01

 * 12 selected distances

     #   Z          #   Z                                           value/Å
     1   8 O        2   8 O                                       1.4328722
     2   8 O        3   6 C                                       1.4108703
     4   6 C        5   6 C                                       1.3768922
     5   6 C        6   6 C                                       1.3759231
     6   6 C        7   6 C                                       1.4894024 (max)
     1   8 O        8   1 H                                       0.9652501 (min)
     3   6 C        9   1 H                                       1.1027609
     4   6 C       10   1 H                                       1.0718259
     5   6 C       11   1 H                                       1.0763650
     6   6 C       12   1 H                                       1.0738249
     7   6 C       13   1 H                                       1.0920388
     7   6 C       14   1 H                                       1.0938291

 * 5 distinct bonds (by element types)

   Z      Z             #   av. dist./Å        max./Å        min./Å
   1 H    6 C           6     1.0851074     1.1027609     1.0718259
   6 C    6 C           3     1.4140726     1.4894024     1.3759231
   1 H    8 O           1     0.9652501     0.9652501     0.9652501
   6 C    8 O           1     1.4108703     1.4108703     1.4108703
   8 O    8 O           1     1.4328722     1.4328722     1.4328722


optimized geometry written to: xtbopt.xyz


           -------------------------------------------------
          | TOTAL ENERGY              -22.247993019149 Eh   |
          | GRADIENT NORM               0.000510640078 Eh/α |
          | HOMO-LUMO GAP               3.672724554583 eV   |
           -------------------------------------------------

------------------------------------------------------------------------
 * finished run on 2025/05/23 at 12:03:01.598     
------------------------------------------------------------------------
 total:
 * wall-time:     0 d,  0 h,  0 min,  0.169 sec
 *  cpu-time:     0 d,  0 h,  0 min,  1.168 sec
 * ratio c/w:     6.932 speedup
 SCF:
 * wall-time:     0 d,  0 h,  0 min,  0.009 sec
 *  cpu-time:     0 d,  0 h,  0 min,  0.062 sec
 * ratio c/w:     6.950 speedup
 ANC optimizer:
 * wall-time:     0 d,  0 h,  0 min,  0.153 sec
 *  cpu-time:     0 d,  0 h,  0 min,  1.068 sec
 * ratio c/w:     6.996 speedup

