      -----------------------------------------------------------      
     |                   =====================                   |     
     |                           x T B                           |     
     |                   =====================                   |     
     |                         S. Grimme                         |     
     |          Mulliken Center for Theoretical Chemistry        |     
     |                    University of Bonn                     |     
      -----------------------------------------------------------      

   * xtb version 6.6.1 (8d0f1dd) compiled by 'conda@1efc2f54142f' on 2023-08-01

   xtb is free software: you can redistribute it and/or modify it under
   the terms of the GNU Lesser General Public License as published by
   the Free Software Foundation, either version 3 of the License, or
   (at your option) any later version.
   
   xtb is distributed in the hope that it will be useful,
   but WITHOUT ANY WARRANTY; without even the implied warranty of
   MERCHANTABILITY or FITNESS FOR A PARTICULAR PURPOSE.  See the
   GNU Lesser General Public License for more details.
   
   Cite this work as:
   * C. Bannwarth, E. Caldeweyher, S. Ehlert, A. Hansen, P. Pracht,
     J. Seibert, S. Spicher, S. Grimme, WIREs Comput. Mol. Sci., 2020, 11,
     e01493. DOI: 10.1002/wcms.1493
   
   for GFN2-xTB:
   * C. Bannwarth, S. Ehlert and S. Grimme., J. Chem. Theory Comput., 2019,
     15, 1652-1671. DOI: 10.1021/acs.jctc.8b01176
   for GFN1-xTB:
   * S. Grimme, C. Bannwarth, P. Shushkov, J. Chem. Theory Comput., 2017,
     13, 1989-2009. DOI: 10.1021/acs.jctc.7b00118
   for GFN0-xTB:
   * P. Pracht, E. Caldeweyher, S. Ehlert, S. Grimme, ChemRxiv, 2019, preprint.
     DOI: 10.26434/chemrxiv.8326202.v1
   for GFN-FF:
   * S. Spicher and S. Grimme, Angew. Chem. Int. Ed., 2020, 59, 15665-15673.
     DOI: 10.1002/anie.202004239
   
   for ALPB and GBSA implicit solvation:
   * S. Ehlert, M. Stahn, S. Spicher, S. Grimme, J. Chem. Theory Comput.,
     2021, 17, 4250-4261. DOI: 10.1021/acs.jctc.1c00471
   
   for DFT-D4:
   * E. Caldeweyher, C. Bannwarth and S. Grimme, J. Chem. Phys., 2017,
     147, 034112. DOI: 10.1063/1.4993215
   * E. Caldeweyher, S. Ehlert, A. Hansen, H. Neugebauer, S. Spicher,
     C. Bannwarth and S. Grimme, J. Chem. Phys., 2019, 150, 154122.
     DOI: 10.1063/1.5090222
   * E. Caldeweyher, J.-M. Mewes, S. Ehlert and S. Grimme, Phys. Chem. Chem. Phys.
     2020, 22, 8499-8512. DOI: 10.1039/D0CP00502A
   
   for sTDA-xTB:
   * S. Grimme and C. Bannwarth, J. Chem. Phys., 2016, 145, 054103.
     DOI: 10.1063/1.4959605
   
   in the mass-spec context:
   * V. Asgeirsson, C. Bauer and S. Grimme, Chem. Sci., 2017, 8, 4879.
     DOI: 10.1039/c7sc00601b
   * J. Koopman and S. Grimme, ACS Omega 2019, 4, 12, 15120-15133.
     DOI: 10.1021/acsomega.9b02011
   
   for metadynamics refer to:
   * S. Grimme, J. Chem. Theory Comput., 2019, 155, 2847-2862
     DOI: 10.1021/acs.jctc.9b00143
   
   for SPH calculations refer to:
   * S. Spicher and S. Grimme, J. Chem. Theory Comput., 2021, 17, 1701-1714
     DOI: 10.1021/acs.jctc.0c01306
   
   with help from (in alphabetical order)
   P. Atkinson, C. Bannwarth, F. Bohle, G. Brandenburg, E. Caldeweyher
   M. Checinski, S. Dohm, S. Ehlert, S. Ehrlich, I. Gerasimov, C. Hölzer
   A. Katbashev, J. Koopman, C. Lavigne, S. Lehtola, F. März, M. Müller,
   F. Musil, H. Neugebauer, J. Pisarek, C. Plett, P. Pracht, F. Pultar,
   J. Seibert, P. Shushkov, S. Spicher, M. Stahn, M. Steiner, T. Strunk,
   J. Stückrath, T. Rose, and J. Unsleber
   
 * started run on 2025/05/23 at 12:03:01.429     

           -------------------------------------------------
          |                Calculation Setup                |
           -------------------------------------------------

          program call               : /gpfs/fs1/home/copan/code/autode-practice/.pixi/envs/default/bin/xtb r0_C5H7O2_conf1_opt_xtb.xyz --chrg 0 --uhf 1 --opt
          hostname                   : csed-0029
          coordinate file            : r0_C5H7O2_conf1_opt_xtb.xyz
          omp threads                :                     4

   ID    Z sym.   atoms
    1    8 O      1, 2
    2    6 C      3-7
    3    1 H      8-14

           -------------------------------------------------
          |                 G F N 2 - x T B                 |
           -------------------------------------------------

        Reference                      10.1021/acs.jctc.8b01176
      * Hamiltonian:
        H0-scaling (s, p, d)           1.850000    2.230000    2.230000
        zeta-weighting                 0.500000
      * Dispersion:
        s8                             2.700000
        a1                             0.520000
        a2                             5.000000
        s9                             5.000000
      * Repulsion:
        kExp                           1.500000    1.000000
        rExp                           1.000000
      * Coulomb:
        alpha                          2.000000
        third order                    shell-resolved
        anisotropic                    true
        a3                             3.000000
        a5                             4.000000
        cn-shift                       1.200000
        cn-exp                         4.000000
        max-rad                        5.000000


          ...................................................
          :                      SETUP                      :
          :.................................................:
          :  # basis functions                  35          :
          :  # atomic orbitals                  35          :
          :  # shells                           21          :
          :  # electrons                        39          :
          :  max. iterations                   250          :
          :  Hamiltonian                  GFN2-xTB          :
          :  restarted?                      false          :
          :  GBSA solvation                  false          :
          :  PC potential                    false          :
          :  electronic temp.          300.0000000     K    :
          :  accuracy                    1.0000000          :
          :  -> integral cutoff          0.2500000E+02      :
          :  -> integral neglect         0.1000000E-07      :
          :  -> SCF convergence          0.1000000E-05 Eh   :
          :  -> wf. convergence          0.1000000E-03 e    :
          :  Broyden damping             0.4000000          :
          ...................................................

 iter      E             dE          RMSdq      gap      omega  full diag
   1    -22.3888200 -0.223888E+02  0.447E+00    3.32       0.0  T
   2    -22.4026305 -0.138105E-01  0.272E+00    2.88       1.0  T
   3    -22.3915436  0.110869E-01  0.982E-01    3.49       1.0  T
   4    -22.4038392 -0.122957E-01  0.405E-01    2.94       1.0  T
   5    -22.4056774 -0.183818E-02  0.142E-01    3.05       1.0  T
   6    -22.4058093 -0.131917E-03  0.578E-02    3.08       1.0  T
   7    -22.4058189 -0.959455E-05  0.247E-02    3.07       1.1  T
   8    -22.4058207 -0.172976E-05  0.881E-03    3.07       3.0  T
   9    -22.4058208 -0.156219E-06  0.278E-03    3.07       9.6  T
  10    -22.4058208 -0.258535E-07  0.133E-03    3.07      20.2  T
  11    -22.4058208 -0.758951E-08  0.627E-04    3.07      42.7  T
  12    -22.4058208 -0.191437E-08  0.233E-04    3.07     114.7  T

   *** convergence criteria satisfied after 12 iterations ***

         #    Occupation            Energy/Eh            Energy/eV
      -------------------------------------------------------------
         1        2.0000           -0.7498478             -20.4044
       ...           ...                  ...                  ...
        14        2.0000           -0.4754615             -12.9380
        15        2.0000           -0.4700214             -12.7899
        16        2.0000           -0.4587474             -12.4832
        17        2.0000           -0.4489928             -12.2177
        18        2.0000           -0.4176813             -11.3657
        19        2.0000           -0.4121008             -11.2138
        20        1.0000           -0.3374422              -9.1823 (HOMO)
        21                         -0.2246482              -6.1130 (LUMO)
        22                         -0.0699200              -1.9026
        23                          0.0287430               0.7821
        24                          0.0642662               1.7488
        25                          0.0912586               2.4833
       ...                                ...                  ...
        35                          0.5995653              16.3150
      -------------------------------------------------------------
                  HL-Gap            0.1127940 Eh            3.0693 eV
             Fermi-level           -0.3279083 Eh           -8.9228 eV

 SCC (total)                   0 d,  0 h,  0 min,  0.008 sec
 SCC setup                      ...        0 min,  0.000 sec (  2.059%)
 Dispersion                     ...        0 min,  0.000 sec (  1.208%)
 classical contributions        ...        0 min,  0.000 sec (  1.097%)
 integral evaluation            ...        0 min,  0.001 sec (  6.392%)
 iterations                     ...        0 min,  0.006 sec ( 73.756%)
 molecular gradient             ...        0 min,  0.001 sec ( 13.208%)
 printout                       ...        0 min,  0.000 sec (  2.077%)

         :::::::::::::::::::::::::::::::::::::::::::::::::::::
         ::                     SUMMARY                     ::
         :::::::::::::::::::::::::::::::::::::::::::::::::::::
         :: total energy             -22.174574723033 Eh    ::
         :: gradient norm              0.115397520871 Eh/a0 ::
         :: HOMO-LUMO gap              3.069281141841 eV    ::
         ::.................................................::
         :: SCC energy               -22.405820849255 Eh    ::
         :: -> isotropic ES            0.026878714503 Eh    ::
         :: -> anisotropic ES          0.000226915875 Eh    ::
         :: -> anisotropic XC         -0.002171224707 Eh    ::
         :: -> dispersion             -0.008951727352 Eh    ::
         :: repulsion energy           0.231234423287 Eh    ::
         :: add. restraining           0.000000000000 Eh    ::
         :: total charge              -0.000000000000 e     ::
         :::::::::::::::::::::::::::::::::::::::::::::::::::::

      ----------------------------------------------------------- 
     |                   =====================                   |
     |                        A N C O P T                        |
     |                   =====================                   |
     |               Approximate Normal Coordinate               |
     |                Rational Function Optimizer                |
      ----------------------------------------------------------- 

          ...................................................
          :                      SETUP                      :
          :.................................................:
          :   optimization level            normal          :
          :   max. optcycles                   200          :
          :   ANC micro-cycles                  20          :
          :   degrees of freedom                36          :
          :.................................................:
          :   RF solver                   davidson          :
          :   write xtbopt.log                true          :
          :   linear?                        false          :
          :   energy convergence         0.5000000E-05 Eh   :
          :   grad. convergence          0.1000000E-02 Eh/α :
          :   maxmium RF displ.          1.0000000          :
          :   Hlow (freq-cutoff)         0.1000000E-01      :
          :   Hmax (freq-cutoff)         5.0000000          :
          :   S6 in model hess.         20.0000000          :
          ...................................................

generating ANC from model Hessian ...
Using Lindh-Hessian (1995)
 Shifting diagonal of input Hessian by    4.1283305258370834E-003
 Lowest  eigenvalues of input Hessian
    0.000000    0.000000    0.000000    0.000000    0.000000    0.000000
    0.010000    0.012660    0.019463    0.019782    0.027951    0.046361
    0.048511    0.048989    0.056564    0.065804    0.082027    0.085756
 Highest eigenvalues
    1.229269    1.288406    1.464026    1.574752    1.710661    1.862368


........................................................................
.............................. CYCLE    1 ..............................
........................................................................

 iter      E             dE          RMSdq      gap      omega  full diag
   1    -22.4058208 -0.224058E+02  0.930E-05    3.07       0.0  T
   2    -22.4058208 -0.202078E-10  0.590E-05    3.07     453.1  T
   3    -22.4058208 -0.757439E-11  0.462E-05    3.07     578.0  T
     SCC iter.                  ...        0 min,  0.002 sec
     gradient                   ...        0 min,  0.001 sec
 * total energy  :   -22.1745747 Eh     change       -0.2483844E-09 Eh
   gradient norm :     0.1153967 Eh/α   predicted     0.0000000E+00 (-100.00%)
   displ. norm   :     0.5043715 α      lambda       -0.3152567E-01
   maximum displ.:     0.2026104 α      in ANC's #2, #3, #4, ...

........................................................................
.............................. CYCLE    2 ..............................
........................................................................

 iter      E             dE          RMSdq      gap      omega  full diag
   1    -22.4300092 -0.224300E+02  0.540E-01    2.88       0.0  T
   2    -22.4302180 -0.208822E-03  0.329E-01    2.89       1.0  T
   3    -22.4301027  0.115364E-03  0.112E-01    2.86       1.0  T
   4    -22.4302306 -0.127893E-03  0.554E-02    2.90       1.0  T
   5    -22.4302626 -0.320464E-04  0.170E-02    2.89       1.6  T
   6    -22.4302641 -0.152157E-05  0.817E-03    2.89       3.3  T
   7    -22.4302644 -0.242853E-06  0.484E-03    2.89       5.5  T
   8    -22.4302645 -0.120627E-06  0.246E-03    2.89      10.9  T
   9    -22.4302645 -0.367372E-07  0.687E-04    2.89      38.9  T
  10    -22.4302645 -0.112496E-08  0.250E-04    2.89     107.1  T
     SCC iter.                  ...        0 min,  0.004 sec
     gradient                   ...        0 min,  0.001 sec
 * total energy  :   -22.1970291 Eh     change       -0.2245438E-01 Eh
   gradient norm :     0.0560381 Eh/α   predicted    -0.1977274E-01 ( -11.94%)
   displ. norm   :     0.5341641 α      lambda       -0.1476436E-01
   maximum displ.:     0.3452461 α      in ANC's #3, #2, #7, ...

........................................................................
.............................. CYCLE    3 ..............................
........................................................................

 iter      E             dE          RMSdq      gap      omega  full diag
   1    -22.4421848 -0.224422E+02  0.511E-01    2.86       0.0  T
   2    -22.4422607 -0.758813E-04  0.309E-01    2.92       1.0  T
   3    -22.4417358  0.524896E-03  0.213E-01    2.84       1.0  T
   4    -22.4423701 -0.634315E-03  0.305E-02    2.89       1.0  T
   5    -22.4423762 -0.610038E-05  0.130E-02    2.90       2.0  T
   6    -22.4423771 -0.915484E-06  0.556E-03    2.90       4.8  T
   7    -22.4423772 -0.121897E-06  0.341E-03    2.90       7.8  T
   8    -22.4423773 -0.573402E-07  0.168E-03    2.90      15.9  T
   9    -22.4423773 -0.158242E-07  0.467E-04    2.90      57.2  T
  10    -22.4423773 -0.600881E-09  0.129E-04    2.90     207.3  T
     SCC iter.                  ...        0 min,  0.004 sec
     gradient                   ...        0 min,  0.001 sec
 * total energy  :   -22.2080696 Eh     change       -0.1104045E-01 Eh
   gradient norm :     0.0425956 Eh/α   predicted    -0.9488537E-02 ( -14.06%)
   displ. norm   :     0.5236165 α      lambda       -0.9489065E-02
   maximum displ.:     0.3563187 α      in ANC's #3, #2, #1, ...

........................................................................
.............................. CYCLE    4 ..............................
........................................................................

 iter      E             dE          RMSdq      gap      omega  full diag
   1    -22.4482237 -0.224482E+02  0.478E-01    2.96       0.0  T
   2    -22.4482226  0.105472E-05  0.293E-01    3.01       1.0  T
   3    -22.4476853  0.537337E-03  0.240E-01    2.95       1.0  T
   4    -22.4484253 -0.739975E-03  0.212E-02    2.99       1.3  T
   5    -22.4484281 -0.283442E-05  0.984E-03    2.99       2.7  T
   6    -22.4484285 -0.430321E-06  0.324E-03    2.99       8.3  T
   7    -22.4484285 -0.242113E-07  0.156E-03    2.99      17.1  T
   8    -22.4484286 -0.786019E-08  0.726E-04    2.99      36.8  T
   9    -22.4484286 -0.201339E-08  0.270E-04    2.99      99.1  T
     SCC iter.                  ...        0 min,  0.004 sec
     gradient                   ...        0 min,  0.001 sec
 * total energy  :   -22.2154465 Eh     change       -0.7376960E-02 Eh
   gradient norm :     0.0449773 Eh/α   predicted    -0.6045361E-02 ( -18.05%)
   displ. norm   :     0.4977611 α      lambda       -0.8462533E-02
   maximum displ.:     0.3603013 α      in ANC's #3, #2, #26, ...

........................................................................
.............................. CYCLE    5 ..............................
........................................................................

 iter      E             dE          RMSdq      gap      omega  full diag
   1    -22.4584015 -0.224584E+02  0.488E-01    3.13       0.0  T
   2    -22.4583447  0.567957E-04  0.304E-01    3.18       1.0  T
   3    -22.4579635  0.381129E-03  0.255E-01    3.13       1.0  T
   4    -22.4587066 -0.743008E-03  0.181E-02    3.15       1.5  T
   5    -22.4587091 -0.256009E-05  0.790E-03    3.16       3.4  T
   6    -22.4587093 -0.180550E-06  0.201E-03    3.16      13.3  T
   7    -22.4587093 -0.780559E-08  0.106E-03    3.16      25.1  T
   8    -22.4587093 -0.337542E-08  0.389E-04    3.16      68.7  T
   9    -22.4587093 -0.560920E-09  0.192E-04    3.16     138.8  T
     SCC iter.                  ...        0 min,  0.004 sec
     gradient                   ...        0 min,  0.001 sec
 * total energy  :   -22.2221117 Eh     change       -0.6665140E-02 Eh
   gradient norm :     0.0451679 Eh/α   predicted    -0.5279635E-02 ( -20.79%)
   displ. norm   :     0.5358206 α      lambda       -0.8731254E-02
   maximum displ.:     0.3138080 α      in ANC's #3, #1, #2, ...

........................................................................
.............................. CYCLE    6 ..............................
........................................................................

 iter      E             dE          RMSdq      gap      omega  full diag
   1    -22.4659864 -0.224660E+02  0.488E-01    3.35       0.0  T
   2    -22.4659716  0.147724E-04  0.295E-01    3.37       1.0  T
   3    -22.4653972  0.574386E-03  0.244E-01    3.35       1.0  T
   4    -22.4661716 -0.774311E-03  0.167E-02    3.36       1.6  T
   5    -22.4661737 -0.211330E-05  0.874E-03    3.37       3.1  T
   6    -22.4661738 -0.154721E-06  0.359E-03    3.36       7.4  T
   7    -22.4661739 -0.398711E-07  0.154E-03    3.36      17.3  T
   8    -22.4661739 -0.940905E-08  0.752E-04    3.36      35.5  T
   9    -22.4661739 -0.271733E-08  0.324E-04    3.36      82.5  T
     SCC iter.                  ...        0 min,  0.004 sec
     gradient                   ...        0 min,  0.001 sec
 * total energy  :   -22.2281866 Eh     change       -0.6074902E-02 Eh
   gradient norm :     0.0525237 Eh/α   predicted    -0.5619013E-02 (  -7.50%)
   displ. norm   :     0.6238055 α      lambda       -0.1344216E-01
   maximum displ.:     0.3550187 α      in ANC's #3, #26, #2, ...

........................................................................
.............................. CYCLE    7 ..............................
........................................................................

 iter      E             dE          RMSdq      gap      omega  full diag
   1    -22.4878282 -0.224878E+02  0.702E-01    3.58       0.0  T
   2    -22.4878631 -0.349175E-04  0.409E-01    3.59       1.0  T
   3    -22.4868219  0.104125E-02  0.295E-01    3.59       1.0  T
   4    -22.4880537 -0.123183E-02  0.239E-02    3.58       1.1  T
   5    -22.4880557 -0.196480E-05  0.141E-02    3.59       1.9  T
   6    -22.4880563 -0.636039E-06  0.661E-03    3.59       4.0  T
   7    -22.4880564 -0.719328E-07  0.192E-03    3.59      13.9  T
   8    -22.4880564 -0.174922E-07  0.876E-04    3.59      30.5  T
   9    -22.4880564 -0.304223E-08  0.381E-04    3.59      70.2  T
     SCC iter.                  ...        0 min,  0.004 sec
     gradient                   ...        0 min,  0.001 sec
 * total energy  :   -22.2311153 Eh     change       -0.2928706E-02 Eh
   gradient norm :     0.0988683 Eh/α   predicted    -0.9336460E-02 ( 218.79%)
   displ. norm   :     0.2656685 α      lambda       -0.1016550E-01
   maximum displ.:     0.1851676 α      in ANC's #1, #2, #5, ...

........................................................................
.............................. CYCLE    8 ..............................
........................................................................

 iter      E             dE          RMSdq      gap      omega  full diag
   1    -22.4840217 -0.224840E+02  0.235E-01    3.53       0.0  T
   2    -22.4840375 -0.158252E-04  0.141E-01    3.53       1.0  T
   3    -22.4839519  0.856335E-04  0.119E-01    3.53       1.0  T
   4    -22.4841103 -0.158400E-03  0.148E-02    3.53       1.8  T
   5    -22.4841107 -0.437876E-06  0.708E-03    3.53       3.8  T
   6    -22.4841108 -0.121185E-06  0.347E-03    3.53       7.7  T
   7    -22.4841108 -0.292493E-07  0.137E-03    3.53      19.5  T
   8    -22.4841108 -0.721803E-08  0.736E-04    3.53      36.3  T
   9    -22.4841109 -0.312744E-08  0.358E-04    3.53      74.6  T
     SCC iter.                  ...        0 min,  0.004 sec
     gradient                   ...        0 min,  0.001 sec
 * total energy  :   -22.2363954 Eh     change       -0.5280152E-02 Eh
   gradient norm :     0.0223486 Eh/α   predicted    -0.5441490E-02 (   3.06%)
   displ. norm   :     0.6227492 α      lambda       -0.6152664E-02
   maximum displ.:     0.3583938 α      in ANC's #2, #1, #3, ...

........................................................................
.............................. CYCLE    9 ..............................
........................................................................

 iter      E             dE          RMSdq      gap      omega  full diag
   1    -22.4516633 -0.224517E+02  0.540E-01    3.58       0.0  T
   2    -22.4517296 -0.663126E-04  0.310E-01    3.59       1.0  T
   3    -22.4516211  0.108477E-03  0.108E-01    3.57       1.0  T
   4    -22.4517463 -0.125162E-03  0.266E-02    3.58       1.0  T
   5    -22.4517524 -0.612677E-05  0.140E-02    3.58       1.9  T
   6    -22.4517538 -0.136520E-05  0.597E-03    3.58       4.5  T
   7    -22.4517539 -0.103402E-06  0.207E-03    3.58      12.9  T
   8    -22.4517539 -0.123201E-07  0.627E-04    3.58      42.6  T
   9    -22.4517539 -0.130616E-08  0.373E-04    3.58      71.6  T
     SCC iter.                  ...        0 min,  0.004 sec
     gradient                   ...        0 min,  0.001 sec
 * total energy  :   -22.2272975 Eh     change        0.9097954E-02 Eh
   gradient norm :     0.0992528 Eh/α   predicted    -0.4269378E-02 (-146.93%)
   displ. norm   :     0.2530689 α      lambda       -0.1821656E-01
   maximum displ.:     0.1438816 α      in ANC's #3, #8, #2, ...

........................................................................
.............................. CYCLE   10 ..............................
........................................................................

 iter      E             dE          RMSdq      gap      omega  full diag
   1    -22.4800738 -0.224801E+02  0.293E-01    3.59       0.0  T
   2    -22.4801057 -0.318559E-04  0.167E-01    3.59       1.0  T
   3    -22.4800608  0.449177E-04  0.752E-02    3.60       1.0  T
   4    -22.4801182 -0.573753E-04  0.181E-02    3.59       1.5  T
   5    -22.4801196 -0.144348E-05  0.104E-02    3.59       2.6  T
   6    -22.4801203 -0.660136E-06  0.455E-03    3.59       5.9  T
   7    -22.4801203 -0.695745E-07  0.207E-03    3.59      12.9  T
   8    -22.4801203 -0.159694E-07  0.942E-04    3.59      28.4  T
   9    -22.4801204 -0.463883E-08  0.464E-04    3.59      57.6  T
     SCC iter.                  ...        0 min,  0.004 sec
     gradient                   ...        0 min,  0.001 sec
 * total energy  :   -22.2388708 Eh     change       -0.1157336E-01 Eh
   gradient norm :     0.0227235 Eh/α   predicted    -0.9691612E-02 ( -16.26%)
   displ. norm   :     0.2506341 α      lambda       -0.2140558E-02
   maximum displ.:     0.1064311 α      in ANC's #4, #1, #2, ...

........................................................................
.............................. CYCLE   11 ..............................
........................................................................

 iter      E             dE          RMSdq      gap      omega  full diag
   1    -22.4874753 -0.224875E+02  0.207E-01    3.61       0.0  T
   2    -22.4874784 -0.318280E-05  0.124E-01    3.61       1.0  T
   3    -22.4874765  0.195323E-05  0.142E-02    3.61       1.9  T
   4    -22.4874792 -0.275186E-05  0.755E-03    3.61       3.5  T
   5    -22.4874797 -0.462435E-06  0.308E-03    3.61       8.7  T
   6    -22.4874797 -0.332365E-07  0.132E-03    3.61      20.2  T
   7    -22.4874797 -0.556132E-08  0.714E-04    3.61      37.4  T
   8    -22.4874797 -0.278290E-08  0.319E-04    3.61      83.7  T
     SCC iter.                  ...        0 min,  0.003 sec
     gradient                   ...        0 min,  0.001 sec
 * total energy  :   -22.2402360 Eh     change       -0.1365151E-02 Eh
   gradient norm :     0.0153645 Eh/α   predicted    -0.1137507E-02 ( -16.68%)
   displ. norm   :     0.4019477 α      lambda       -0.1729900E-02
   maximum displ.:     0.2084398 α      in ANC's #2, #1, #4, ...

........................................................................
.............................. CYCLE   12 ..............................
........................................................................

 iter      E             dE          RMSdq      gap      omega  full diag
   1    -22.4870892 -0.224871E+02  0.296E-01    3.63       0.0  T
   2    -22.4870954 -0.625060E-05  0.175E-01    3.63       1.0  T
   3    -22.4870705  0.249064E-04  0.414E-02    3.63       1.0  T
   4    -22.4870984 -0.279282E-04  0.865E-03    3.63       3.1  T
   5    -22.4870990 -0.568816E-06  0.440E-03    3.63       6.1  T
   6    -22.4870990 -0.474003E-07  0.205E-03    3.63      13.0  T
   7    -22.4870991 -0.133958E-07  0.891E-04    3.63      30.0  T
   8    -22.4870991 -0.370729E-08  0.516E-04    3.63      51.8  T
     SCC iter.                  ...        0 min,  0.003 sec
     gradient                   ...        0 min,  0.001 sec
 * total energy  :   -22.2416477 Eh     change       -0.1411684E-02 Eh
   gradient norm :     0.0107915 Eh/α   predicted    -0.1004702E-02 ( -28.83%)
   displ. norm   :     0.5912484 α      lambda       -0.1903855E-02
   maximum displ.:     0.3179422 α      in ANC's #2, #1, #4, ...

........................................................................
.............................. CYCLE   13 ..............................
........................................................................

 iter      E             dE          RMSdq      gap      omega  full diag
   1    -22.4820490 -0.224820E+02  0.395E-01    3.62       0.0  T
   2    -22.4820642 -0.152352E-04  0.234E-01    3.62       1.0  T
   3    -22.4820499  0.143888E-04  0.359E-02    3.62       1.0  T
   4    -22.4820661 -0.162869E-04  0.146E-02    3.62       1.8  T
   5    -22.4820686 -0.246319E-05  0.640E-03    3.62       4.2  T
   6    -22.4820687 -0.133110E-06  0.322E-03    3.62       8.3  T
   7    -22.4820688 -0.277605E-07  0.117E-03    3.62      22.8  T
   8    -22.4820688 -0.728969E-08  0.673E-04    3.62      39.7  T
   9    -22.4820688 -0.215303E-08  0.255E-04    3.62     104.9  T
     SCC iter.                  ...        0 min,  0.004 sec
     gradient                   ...        0 min,  0.001 sec
 * total energy  :   -22.2428659 Eh     change       -0.1218228E-02 Eh
   gradient norm :     0.0153458 Eh/α   predicted    -0.1284684E-02 (   5.46%)
   displ. norm   :     0.2751669 α      lambda       -0.8282003E-03
   maximum displ.:     0.1359001 α      in ANC's #2, #1, #4, ...

........................................................................
.............................. CYCLE   14 ..............................
........................................................................

 iter      E             dE          RMSdq      gap      omega  full diag
   1    -22.4842349 -0.224842E+02  0.172E-01    3.63       0.0  T
   2    -22.4842394 -0.448412E-05  0.103E-01    3.63       1.0  T
   3    -22.4842323  0.701680E-05  0.227E-02    3.63       1.2  T
   4    -22.4842400 -0.769312E-05  0.880E-03    3.63       3.0  T
   5    -22.4842409 -0.875306E-06  0.345E-03    3.63       7.8  T
   6    -22.4842409 -0.261211E-07  0.158E-03    3.63      16.9  T
   7    -22.4842409 -0.739435E-08  0.553E-04    3.63      48.3  T
   8    -22.4842409 -0.111560E-08  0.316E-04    3.63      84.5  T
     SCC iter.                  ...        0 min,  0.003 sec
     gradient                   ...        0 min,  0.001 sec
 * total energy  :   -22.2435035 Eh     change       -0.6375939E-03 Eh
   gradient norm :     0.0148150 Eh/α   predicted    -0.4454562E-03 ( -30.13%)
   displ. norm   :     0.3809196 α      lambda       -0.1061086E-02
   maximum displ.:     0.1852532 α      in ANC's #4, #1, #2, ...

........................................................................
.............................. CYCLE   15 ..............................
........................................................................

 iter      E             dE          RMSdq      gap      omega  full diag
   1    -22.4885074 -0.224885E+02  0.231E-01    3.68       0.0  T
   2    -22.4885130 -0.560393E-05  0.139E-01    3.68       1.0  T
   3    -22.4884634  0.496232E-04  0.568E-02    3.68       1.0  T
   4    -22.4885178 -0.544278E-04  0.824E-03    3.68       3.2  T
   5    -22.4885184 -0.612302E-06  0.361E-03    3.68       7.4  T
   6    -22.4885184 -0.140158E-07  0.140E-03    3.68      19.0  T
   7    -22.4885184 -0.388122E-08  0.389E-04    3.68      68.7  T
   8    -22.4885184 -0.499167E-09  0.254E-04    3.68     105.0  T
     SCC iter.                  ...        0 min,  0.003 sec
     gradient                   ...        0 min,  0.001 sec
 * total energy  :   -22.2442454 Eh     change       -0.7419552E-03 Eh
   gradient norm :     0.0123894 Eh/α   predicted    -0.6075255E-03 ( -18.12%)
   displ. norm   :     0.3618238 α      lambda       -0.6635430E-03
   maximum displ.:     0.1775054 α      in ANC's #4, #1, #2, ...

........................................................................
.............................. CYCLE   16 ..............................
........................................................................

 iter      E             dE          RMSdq      gap      omega  full diag
   1    -22.4910446 -0.224910E+02  0.218E-01    3.69       0.0  T
   2    -22.4910475 -0.289990E-05  0.129E-01    3.69       1.0  T
   3    -22.4910372  0.103356E-04  0.274E-02    3.68       1.0  T
   4    -22.4910488 -0.116378E-04  0.686E-03    3.69       3.9  T
   5    -22.4910492 -0.399844E-06  0.336E-03    3.69       8.0  T
   6    -22.4910492 -0.121919E-07  0.101E-03    3.69      26.3  T
   7    -22.4910492 -0.530922E-08  0.413E-04    3.69      64.7  T
   8    -22.4910492 -0.757058E-09  0.220E-04    3.69     121.6  T
     SCC iter.                  ...        0 min,  0.003 sec
     gradient                   ...        0 min,  0.001 sec
 * total energy  :   -22.2447030 Eh     change       -0.4576102E-03 Eh
   gradient norm :     0.0091288 Eh/α   predicted    -0.3752041E-03 ( -18.01%)
   displ. norm   :     0.3515419 α      lambda       -0.4310277E-03
   maximum displ.:     0.1872176 α      in ANC's #1, #4, #8, ...

........................................................................
.............................. CYCLE   17 ..............................
........................................................................

 iter      E             dE          RMSdq      gap      omega  full diag
   1    -22.4903037 -0.224903E+02  0.206E-01    3.71       0.0  T
   2    -22.4903073 -0.355479E-05  0.123E-01    3.71       1.0  T
   3    -22.4902843  0.230234E-04  0.402E-02    3.71       1.0  T
   4    -22.4903101 -0.258423E-04  0.690E-03    3.70       3.9  T
   5    -22.4903103 -0.214946E-06  0.342E-03    3.70       7.8  T
   6    -22.4903103 -0.175804E-07  0.119E-03    3.70      22.5  T
   7    -22.4903103 -0.206673E-08  0.431E-04    3.70      62.0  T
   8    -22.4903103 -0.837520E-09  0.191E-04    3.70     139.8  T
     SCC iter.                  ...        0 min,  0.003 sec
     gradient                   ...        0 min,  0.001 sec
 * total energy  :   -22.2449846 Eh     change       -0.2815613E-03 Eh
   gradient norm :     0.0099699 Eh/α   predicted    -0.2421481E-03 ( -14.00%)
   displ. norm   :     0.2327438 α      lambda       -0.3502557E-03
   maximum displ.:     0.1260162 α      in ANC's #4, #1, #8, ...

........................................................................
.............................. CYCLE   18 ..............................
........................................................................

 iter      E             dE          RMSdq      gap      omega  full diag
   1    -22.4951158 -0.224951E+02  0.140E-01    3.73       0.0  T
   2    -22.4951217 -0.594614E-05  0.840E-02    3.73       1.0  T
   3    -22.4951217 -0.190198E-07  0.134E-02    3.73       2.0  T
   4    -22.4951222 -0.500741E-06  0.817E-03    3.73       3.3  T
   5    -22.4951230 -0.707011E-06  0.350E-03    3.73       7.6  T
   6    -22.4951230 -0.628689E-07  0.153E-03    3.73      17.5  T
   7    -22.4951230 -0.594665E-08  0.489E-04    3.73      54.6  T
   8    -22.4951230 -0.803894E-09  0.299E-04    3.73      89.5  T
     SCC iter.                  ...        0 min,  0.003 sec
     gradient                   ...        0 min,  0.001 sec
 * total energy  :   -22.2451514 Eh     change       -0.1667710E-03 Eh
   gradient norm :     0.0084995 Eh/α   predicted    -0.1846177E-03 (  10.70%)
   displ. norm   :     0.4777406 α      lambda       -0.4464117E-03
   maximum displ.:     0.2804018 α      in ANC's #1, #4, #8, ...

........................................................................
.............................. CYCLE   19 ..............................
........................................................................

 iter      E             dE          RMSdq      gap      omega  full diag
   1    -22.4889618 -0.224890E+02  0.273E-01    3.70       0.0  T
   2    -22.4889768 -0.150345E-04  0.163E-01    3.71       1.0  T
   3    -22.4889736  0.318437E-05  0.245E-02    3.70       1.1  T
   4    -22.4889773 -0.361762E-05  0.160E-02    3.70       1.7  T
   5    -22.4889804 -0.313932E-05  0.524E-03    3.70       5.1  T
   6    -22.4889804 -0.337064E-07  0.168E-03    3.70      15.9  T
   7    -22.4889804 -0.107976E-07  0.584E-04    3.70      45.8  T
   8    -22.4889804 -0.945402E-09  0.304E-04    3.70      87.8  T
     SCC iter.                  ...        0 min,  0.003 sec
     gradient                   ...        0 min,  0.001 sec
 * total energy  :   -22.2452449 Eh     change       -0.9351603E-04 Eh
   gradient norm :     0.0116843 Eh/α   predicted    -0.2741514E-03 ( 193.16%)
   displ. norm   :     0.1114058 α      lambda       -0.3923956E-03
   maximum displ.:     0.0812834 α      in ANC's #2, #4, #8, ...

........................................................................
.............................. CYCLE   20 ..............................
........................................................................

 iter      E             dE          RMSdq      gap      omega  full diag
   1    -22.4919882 -0.224920E+02  0.885E-02    3.72       0.0  T
   2    -22.4919903 -0.203703E-05  0.520E-02    3.72       1.0  T
   3    -22.4919897  0.542718E-06  0.108E-02    3.72       2.5  T
   4    -22.4919906 -0.841057E-06  0.494E-03    3.72       5.4  T
   5    -22.4919908 -0.224686E-06  0.235E-03    3.72      11.4  T
   6    -22.4919908 -0.210298E-07  0.102E-03    3.72      26.1  T
   7    -22.4919908 -0.442903E-08  0.409E-04    3.72      65.3  T
   8    -22.4919908 -0.670674E-09  0.234E-04    3.72     114.0  T
     SCC iter.                  ...        0 min,  0.003 sec
     gradient                   ...        0 min,  0.001 sec
 * total energy  :   -22.2454470 Eh     change       -0.2021051E-03 Eh
   gradient norm :     0.0083362 Eh/α   predicted    -0.1986327E-03 (  -1.72%)
   displ. norm   :     0.1075359 α      lambda       -0.1911280E-03
   maximum displ.:     0.0827267 α      in ANC's #2, #4, #3, ...
 * RMSD in coord.:     1.4604093 α      energy gain  -0.7087228E-01 Eh

generating ANC from model Hessian ...
Using Lindh-Hessian (1995)
 Shifting diagonal of input Hessian by    5.4960907511850633E-003
 Lowest  eigenvalues of input Hessian
    0.000000    0.000000    0.000000    0.000000    0.000000    0.000000
    0.010000    0.012007    0.018127    0.021377    0.030139    0.042714
    0.050260    0.057827    0.063597    0.067976    0.080071    0.083757
 Highest eigenvalues
    1.278930    1.363910    1.431278    1.486811    1.756085    1.854612


........................................................................
.............................. CYCLE   21 ..............................
........................................................................

 iter      E             dE          RMSdq      gap      omega  full diag
   1    -22.4932013 -0.224932E+02  0.843E-02    3.73       0.0  T
   2    -22.4932027 -0.140759E-05  0.525E-02    3.73       1.0  T
   3    -22.4931874  0.153159E-04  0.365E-02    3.73       1.0  T
   4    -22.4932058 -0.183543E-04  0.429E-03    3.73       6.2  T
   5    -22.4932058 -0.327154E-07  0.237E-03    3.73      11.3  T
   6    -22.4932058 -0.112372E-07  0.990E-04    3.73      27.0  T
   7    -22.4932058 -0.375863E-08  0.451E-04    3.73      59.2  T
     SCC iter.                  ...        0 min,  0.003 sec
     gradient                   ...        0 min,  0.001 sec
 * total energy  :   -22.2455609 Eh     change       -0.1138653E-03 Eh
   gradient norm :     0.0076597 Eh/α   predicted     0.0000000E+00 (-100.00%)
   displ. norm   :     0.1241786 α      lambda       -0.2924041E-03
   maximum displ.:     0.0895122 α      in ANC's #3, #1, #4, ...

........................................................................
.............................. CYCLE   22 ..............................
........................................................................

 iter      E             dE          RMSdq      gap      omega  full diag
   1    -22.4928362 -0.224928E+02  0.842E-02    3.71       0.0  T
   2    -22.4928378 -0.154333E-05  0.530E-02    3.71       1.0  T
   3    -22.4928377  0.509018E-07  0.871E-03    3.71       3.1  T
   4    -22.4928385 -0.803228E-06  0.426E-03    3.71       6.3  T
   5    -22.4928387 -0.156113E-06  0.189E-03    3.71      14.2  T
   6    -22.4928387 -0.117152E-07  0.701E-04    3.71      38.1  T
   7    -22.4928387 -0.154872E-08  0.301E-04    3.71      88.9  T
     SCC iter.                  ...        0 min,  0.003 sec
     gradient                   ...        0 min,  0.001 sec
 * total energy  :   -22.2458053 Eh     change       -0.2444142E-03 Eh
   gradient norm :     0.0051723 Eh/α   predicted    -0.1484574E-03 ( -39.26%)
   displ. norm   :     0.2913915 α      lambda       -0.5012469E-03
   maximum displ.:     0.2127870 α      in ANC's #3, #1, #4, ...

........................................................................
.............................. CYCLE   23 ..............................
........................................................................

 iter      E             dE          RMSdq      gap      omega  full diag
   1    -22.4903226 -0.224903E+02  0.214E-01    3.70       0.0  T
   2    -22.4903350 -0.123628E-04  0.136E-01    3.70       1.0  T
   3    -22.4903252  0.979617E-05  0.350E-02    3.69       1.0  T
   4    -22.4903426 -0.173825E-04  0.113E-02    3.70       2.4  T
   5    -22.4903434 -0.835899E-06  0.614E-03    3.70       4.3  T
   6    -22.4903435 -0.110940E-06  0.214E-03    3.70      12.5  T
   7    -22.4903436 -0.188874E-07  0.101E-03    3.70      26.5  T
   8    -22.4903436 -0.351563E-08  0.664E-04    3.70      40.2  T
   9    -22.4903436 -0.233952E-08  0.220E-04    3.70     121.6  T
     SCC iter.                  ...        0 min,  0.004 sec
     gradient                   ...        0 min,  0.001 sec
 * total energy  :   -22.2460068 Eh     change       -0.2014762E-03 Eh
   gradient norm :     0.0196730 Eh/α   predicted    -0.2719051E-03 (  34.96%)
   displ. norm   :     0.0556296 α      lambda       -0.3506190E-03
   maximum displ.:     0.0385285 α      in ANC's #2, #3, #4, ...

........................................................................
.............................. CYCLE   24 ..............................
........................................................................

 iter      E             dE          RMSdq      gap      omega  full diag
   1    -22.4926941 -0.224927E+02  0.440E-02    3.70       0.0  T
   2    -22.4926950 -0.920476E-06  0.259E-02    3.70       1.0  T
   3    -22.4926951 -0.169061E-06  0.520E-03    3.70       5.1  T
   4    -22.4926951  0.817390E-08  0.347E-03    3.70       7.7  T
   5    -22.4926953 -0.131160E-06  0.149E-03    3.70      17.9  T
   6    -22.4926953 -0.709300E-08  0.626E-04    3.70      42.7  T
   7    -22.4926953 -0.112768E-08  0.194E-04    3.70     137.9  T
     SCC iter.                  ...        0 min,  0.003 sec
     gradient                   ...        0 min,  0.001 sec
 * total energy  :   -22.2461994 Eh     change       -0.1926398E-03 Eh
   gradient norm :     0.0054271 Eh/α   predicted    -0.1758506E-03 (  -8.72%)
   displ. norm   :     0.1534897 α      lambda       -0.2129758E-03
   maximum displ.:     0.1158648 α      in ANC's #1, #3, #2, ...

........................................................................
.............................. CYCLE   25 ..............................
........................................................................

 iter      E             dE          RMSdq      gap      omega  full diag
   1    -22.4933293 -0.224933E+02  0.120E-01    3.69       0.0  T
   2    -22.4933341 -0.478845E-05  0.760E-02    3.69       1.0  T
   3    -22.4933289  0.521391E-05  0.230E-02    3.69       1.2  T
   4    -22.4933358 -0.691462E-05  0.786E-03    3.69       3.4  T
   5    -22.4933365 -0.690465E-06  0.297E-03    3.69       9.0  T
   6    -22.4933365 -0.299465E-07  0.166E-03    3.69      16.1  T
   7    -22.4933365 -0.107322E-07  0.572E-04    3.69      46.7  T
   8    -22.4933365 -0.119864E-08  0.375E-04    3.69      71.3  T
     SCC iter.                  ...        0 min,  0.003 sec
     gradient                   ...        0 min,  0.001 sec
 * total energy  :   -22.2463773 Eh     change       -0.1778741E-03 Eh
   gradient norm :     0.0053347 Eh/α   predicted    -0.1089982E-03 ( -38.72%)
   displ. norm   :     0.3390419 α      lambda       -0.3924103E-03
   maximum displ.:     0.2516730 α      in ANC's #1, #3, #29, ...

........................................................................
.............................. CYCLE   26 ..............................
........................................................................

 iter      E             dE          RMSdq      gap      omega  full diag
   1    -22.4918126 -0.224918E+02  0.272E-01    3.68       0.0  T
   2    -22.4918344 -0.217967E-04  0.174E-01    3.68       1.0  T
   3    -22.4918145  0.199809E-04  0.475E-02    3.68       1.0  T
   4    -22.4918456 -0.311310E-04  0.158E-02    3.68       1.7  T
   5    -22.4918478 -0.223866E-05  0.773E-03    3.68       3.5  T
   6    -22.4918480 -0.181994E-06  0.376E-03    3.68       7.1  T
   7    -22.4918481 -0.588837E-07  0.135E-03    3.68      19.8  T
   8    -22.4918481 -0.588493E-08  0.901E-04    3.68      29.7  T
   9    -22.4918481 -0.427638E-08  0.218E-04    3.68     122.7  T
     SCC iter.                  ...        0 min,  0.004 sec
     gradient                   ...        0 min,  0.001 sec
 * total energy  :   -22.2464416 Eh     change       -0.6432671E-04 Eh
   gradient norm :     0.0196090 Eh/α   predicted    -0.2187595E-03 ( 240.08%)
   displ. norm   :     0.1074183 α      lambda       -0.4852754E-03
   maximum displ.:     0.0752363 α      in ANC's #1, #3, #4, ...

........................................................................
.............................. CYCLE   27 ..............................
........................................................................

 iter      E             dE          RMSdq      gap      omega  full diag
   1    -22.4947735 -0.224948E+02  0.103E-01    3.70       0.0  T
   2    -22.4947772 -0.368618E-05  0.655E-02    3.70       1.0  T
   3    -22.4947774 -0.146766E-06  0.123E-02    3.70       2.2  T
   4    -22.4947787 -0.132671E-05  0.672E-03    3.70       4.0  T
   5    -22.4947791 -0.388019E-06  0.357E-03    3.70       7.5  T
   6    -22.4947791 -0.471928E-07  0.129E-03    3.70      20.7  T
   7    -22.4947791 -0.726424E-08  0.585E-04    3.70      45.7  T
   8    -22.4947791 -0.142073E-08  0.359E-04    3.70      74.5  T
     SCC iter.                  ...        0 min,  0.003 sec
     gradient                   ...        0 min,  0.001 sec
 * total energy  :   -22.2466262 Eh     change       -0.1845682E-03 Eh
   gradient norm :     0.0020626 Eh/α   predicted    -0.2454351E-03 (  32.98%)
   displ. norm   :     0.0918177 α      lambda       -0.7930690E-04
   maximum displ.:     0.0681772 α      in ANC's #1, #3, #29, ...

........................................................................
.............................. CYCLE   28 ..............................
........................................................................

 iter      E             dE          RMSdq      gap      omega  full diag
   1    -22.4945548 -0.224946E+02  0.748E-02    3.70       0.0  T
   2    -22.4945562 -0.145095E-05  0.474E-02    3.70       1.0  T
   3    -22.4945560  0.221532E-06  0.891E-03    3.70       3.0  T
   4    -22.4945569 -0.868257E-06  0.423E-03    3.70       6.3  T
   5    -22.4945571 -0.188260E-06  0.187E-03    3.70      14.3  T
   6    -22.4945571 -0.111732E-07  0.907E-04    3.70      29.5  T
   7    -22.4945571 -0.327108E-08  0.323E-04    3.70      82.8  T
     SCC iter.                  ...        0 min,  0.003 sec
     gradient                   ...        0 min,  0.001 sec
 * total energy  :   -22.2466957 Eh     change       -0.6949094E-04 Eh
   gradient norm :     0.0027458 Eh/α   predicted    -0.3998851E-04 ( -42.46%)
   displ. norm   :     0.2744097 α      lambda       -0.1920170E-03
   maximum displ.:     0.2036392 α      in ANC's #1, #3, #29, ...

........................................................................
.............................. CYCLE   29 ..............................
........................................................................

 iter      E             dE          RMSdq      gap      omega  full diag
   1    -22.4925794 -0.224926E+02  0.235E-01    3.69       0.0  T
   2    -22.4925927 -0.133317E-04  0.150E-01    3.69       1.0  T
   3    -22.4925950 -0.224823E-05  0.222E-02    3.69       1.2  T
   4    -22.4925994 -0.442300E-05  0.121E-02    3.69       2.2  T
   5    -22.4926008 -0.143882E-05  0.595E-03    3.69       4.5  T
   6    -22.4926010 -0.133450E-06  0.256E-03    3.69      10.4  T
   7    -22.4926010 -0.291352E-07  0.104E-03    3.69      25.6  T
   8    -22.4926010 -0.360713E-08  0.663E-04    3.69      40.3  T
   9    -22.4926010 -0.233767E-08  0.175E-04    3.69     153.1  T
     SCC iter.                  ...        0 min,  0.004 sec
     gradient                   ...        0 min,  0.001 sec
 * total energy  :   -22.2466875 Eh     change        0.8111598E-05 Eh
   gradient norm :     0.0151025 Eh/α   predicted    -0.1032392E-03 (*******%)
   displ. norm   :     0.1366458 α      lambda       -0.2742478E-03
   maximum displ.:     0.0996895 α      in ANC's #1, #3, #29, ...

........................................................................
.............................. CYCLE   30 ..............................
........................................................................

 iter      E             dE          RMSdq      gap      omega  full diag
   1    -22.4944406 -0.224944E+02  0.123E-01    3.70       0.0  T
   2    -22.4944447 -0.410181E-05  0.780E-02    3.70       1.0  T
   3    -22.4944448 -0.633173E-07  0.139E-02    3.70       1.9  T
   4    -22.4944467 -0.195455E-05  0.705E-03    3.70       3.8  T
   5    -22.4944471 -0.426656E-06  0.374E-03    3.70       7.2  T
   6    -22.4944472 -0.518621E-07  0.138E-03    3.70      19.3  T
   7    -22.4944472 -0.861313E-08  0.601E-04    3.70      44.4  T
   8    -22.4944472 -0.129140E-08  0.403E-04    3.70      66.3  T
     SCC iter.                  ...        0 min,  0.003 sec
     gradient                   ...        0 min,  0.001 sec
 * total energy  :   -22.2467848 Eh     change       -0.9726193E-04 Eh
   gradient norm :     0.0026115 Eh/α   predicted    -0.1396835E-03 (  43.62%)
   displ. norm   :     0.0492938 α      lambda       -0.3076874E-04
   maximum displ.:     0.0357641 α      in ANC's #1, #3, #29, ...

........................................................................
.............................. CYCLE   31 ..............................
........................................................................

 iter      E             dE          RMSdq      gap      omega  full diag
   1    -22.4943945 -0.224944E+02  0.422E-02    3.70       0.0  T
   2    -22.4943949 -0.402810E-06  0.268E-02    3.70       1.0  T
   3    -22.4943951 -0.209187E-06  0.231E-03    3.70      11.6  T
   4    -22.4943951 -0.193223E-07  0.120E-03    3.70      22.3  T
   5    -22.4943951 -0.197986E-08  0.691E-04    3.70      38.7  T
   6    -22.4943951 -0.656421E-09  0.432E-04    3.70      61.9  T
     SCC iter.                  ...        0 min,  0.003 sec
     gradient                   ...        0 min,  0.001 sec
 * total energy  :   -22.2468125 Eh     change       -0.2771651E-04 Eh
   gradient norm :     0.0028162 Eh/α   predicted    -0.1542205E-04 ( -44.36%)
   displ. norm   :     0.2035507 α      lambda       -0.1122754E-03
   maximum displ.:     0.1505311 α      in ANC's #1, #3, #2, ...

........................................................................
.............................. CYCLE   32 ..............................
........................................................................

 iter      E             dE          RMSdq      gap      omega  full diag
   1    -22.4934736 -0.224935E+02  0.176E-01    3.70       0.0  T
   2    -22.4934805 -0.693942E-05  0.112E-01    3.70       1.0  T
   3    -22.4934839 -0.342241E-05  0.104E-02    3.70       2.6  T
   4    -22.4934844 -0.448278E-06  0.644E-03    3.70       4.1  T
   5    -22.4934846 -0.177341E-06  0.408E-03    3.70       6.6  T
   6    -22.4934847 -0.113750E-06  0.162E-03    3.70      16.5  T
   7    -22.4934847 -0.137682E-07  0.714E-04    3.70      37.4  T
   8    -22.4934847 -0.172975E-08  0.468E-04    3.70      57.1  T
     SCC iter.                  ...        0 min,  0.003 sec
     gradient                   ...        0 min,  0.001 sec
 * total energy  :   -22.2468474 Eh     change       -0.3487016E-04 Eh
   gradient norm :     0.0089113 Eh/α   predicted    -0.5846600E-04 (  67.67%)
   displ. norm   :     0.0611887 α      lambda       -0.7795950E-04
   maximum displ.:     0.0430468 α      in ANC's #1, #3, #29, ...

........................................................................
.............................. CYCLE   33 ..............................
........................................................................

 iter      E             dE          RMSdq      gap      omega  full diag
   1    -22.4944582 -0.224945E+02  0.582E-02    3.70       0.0  T
   2    -22.4944591 -0.830407E-06  0.370E-02    3.70       1.0  T
   3    -22.4944594 -0.329202E-06  0.473E-03    3.70       5.6  T
   4    -22.4944595 -0.146261E-06  0.283E-03    3.70       9.5  T
   5    -22.4944596 -0.471455E-07  0.175E-03    3.70      15.3  T
   6    -22.4944596 -0.164461E-07  0.494E-04    3.70      54.1  T
   7    -22.4944596 -0.121766E-08  0.273E-04    3.70      98.0  T
     SCC iter.                  ...        0 min,  0.003 sec
     gradient                   ...        0 min,  0.001 sec
 * total energy  :   -22.2468838 Eh     change       -0.3645042E-04 Eh
   gradient norm :     0.0025822 Eh/α   predicted    -0.3912656E-04 (   7.34%)
   displ. norm   :     0.0532076 α      lambda       -0.2695575E-04
   maximum displ.:     0.0342543 α      in ANC's #1, #2, #4, ...

........................................................................
.............................. CYCLE   34 ..............................
........................................................................

 iter      E             dE          RMSdq      gap      omega  full diag
   1    -22.4945931 -0.224946E+02  0.372E-02    3.70       0.0  T
   2    -22.4945934 -0.271083E-06  0.233E-02    3.70       1.1  T
   3    -22.4945931  0.338328E-06  0.581E-03    3.70       4.6  T
   4    -22.4945935 -0.473277E-06  0.188E-03    3.70      14.2  T
   5    -22.4945936 -0.294254E-07  0.815E-04    3.70      32.8  T
   6    -22.4945936 -0.102125E-08  0.288E-04    3.70      92.7  T
     SCC iter.                  ...        0 min,  0.003 sec
     gradient                   ...        0 min,  0.001 sec
 * total energy  :   -22.2469082 Eh     change       -0.2433671E-04 Eh
   gradient norm :     0.0028055 Eh/α   predicted    -0.1351414E-04 ( -44.47%)
   displ. norm   :     0.2782553 α      lambda       -0.1239169E-03
   maximum displ.:     0.1856899 α      in ANC's #1, #2, #31, ...

........................................................................
.............................. CYCLE   35 ..............................
........................................................................

 iter      E             dE          RMSdq      gap      omega  full diag
   1    -22.4932665 -0.224933E+02  0.204E-01    3.70       0.0  T
   2    -22.4932750 -0.855106E-05  0.128E-01    3.70       1.0  T
   3    -22.4932675  0.759796E-05  0.297E-02    3.70       1.0  T
   4    -22.4932794 -0.119792E-04  0.105E-02    3.70       2.5  T
   5    -22.4932803 -0.904838E-06  0.487E-03    3.70       5.5  T
   6    -22.4932804 -0.429371E-07  0.162E-03    3.70      16.5  T
   7    -22.4932804 -0.108458E-07  0.804E-04    3.70      33.2  T
   8    -22.4932804 -0.261124E-08  0.537E-04    3.70      49.8  T
     SCC iter.                  ...        0 min,  0.003 sec
     gradient                   ...        0 min,  0.001 sec
 * total energy  :   -22.2469355 Eh     change       -0.2731460E-04 Eh
   gradient norm :     0.0109514 Eh/α   predicted    -0.6675382E-04 ( 144.39%)
   displ. norm   :     0.0947954 α      lambda       -0.1628966E-03
   maximum displ.:     0.0676319 α      in ANC's #1, #3, #2, ...

........................................................................
.............................. CYCLE   36 ..............................
........................................................................

 iter      E             dE          RMSdq      gap      omega  full diag
   1    -22.4949269 -0.224949E+02  0.896E-02    3.70       0.0  T
   2    -22.4949288 -0.188675E-05  0.570E-02    3.70       1.0  T
   3    -22.4949297 -0.892506E-06  0.661E-03    3.70       4.0  T
   4    -22.4949299 -0.237568E-06  0.416E-03    3.70       6.4  T
   5    -22.4949300 -0.829862E-07  0.251E-03    3.70      10.7  T
   6    -22.4949300 -0.360047E-07  0.605E-04    3.70      44.2  T
   7    -22.4949300 -0.154104E-08  0.393E-04    3.70      68.1  T
     SCC iter.                  ...        0 min,  0.003 sec
     gradient                   ...        0 min,  0.001 sec
 * total energy  :   -22.2469933 Eh     change       -0.5779189E-04 Eh
   gradient norm :     0.0027102 Eh/α   predicted    -0.8218065E-04 (  42.20%)
   displ. norm   :     0.0992522 α      lambda       -0.4546170E-04
   maximum displ.:     0.0798858 α      in ANC's #2, #1, #31, ...

........................................................................
.............................. CYCLE   37 ..............................
........................................................................

 iter      E             dE          RMSdq      gap      omega  full diag
   1    -22.4948273 -0.224948E+02  0.547E-02    3.70       0.0  T
   2    -22.4948277 -0.357445E-06  0.334E-02    3.70       1.0  T
   3    -22.4948257  0.196661E-05  0.121E-02    3.70       2.2  T
   4    -22.4948280 -0.226687E-05  0.222E-03    3.70      12.0  T
   5    -22.4948280 -0.177969E-07  0.116E-03    3.70      23.0  T
   6    -22.4948280 -0.109202E-08  0.329E-04    3.70      81.3  T
   7    -22.4948280 -0.513829E-09  0.129E-04    3.70     206.7  T
     SCC iter.                  ...        0 min,  0.003 sec
     gradient                   ...        0 min,  0.001 sec
 * total energy  :   -22.2470353 Eh     change       -0.4199696E-04 Eh
   gradient norm :     0.0036807 Eh/α   predicted    -0.2295400E-04 ( -45.34%)
   displ. norm   :     0.5961876 α      lambda       -0.2488939E-03
   maximum displ.:     0.4552355 α      in ANC's #2, #1, #31, ...

........................................................................
.............................. CYCLE   38 ..............................
........................................................................

 iter      E             dE          RMSdq      gap      omega  full diag
   1    -22.4871285 -0.224871E+02  0.363E-01    3.69       0.0  T
   2    -22.4871514 -0.228715E-04  0.224E-01    3.69       1.0  T
   3    -22.4870856  0.657562E-04  0.738E-02    3.69       1.0  T
   4    -22.4871660 -0.803487E-04  0.183E-02    3.69       1.5  T
   5    -22.4871677 -0.166923E-05  0.942E-03    3.69       2.8  T
   6    -22.4871678 -0.993614E-07  0.282E-03    3.69       9.5  T
   7    -22.4871678 -0.430967E-07  0.125E-03    3.69      21.4  T
   8    -22.4871678 -0.598048E-08  0.801E-04    3.69      33.4  T
   9    -22.4871678 -0.339652E-08  0.252E-04    3.69     106.0  T
     SCC iter.                  ...        0 min,  0.004 sec
     gradient                   ...        0 min,  0.001 sec
 * total energy  :   -22.2460602 Eh     change        0.9751270E-03 Eh
   gradient norm :     0.0407369 Eh/α   predicted    -0.1686735E-03 (-117.30%)
   displ. norm   :     0.3428243 α      lambda       -0.3026174E-02
   maximum displ.:     0.2301932 α      in ANC's #2, #1, #31, ...

........................................................................
.............................. CYCLE   39 ..............................
........................................................................

 iter      E             dE          RMSdq      gap      omega  full diag
   1    -22.4948407 -0.224948E+02  0.261E-01    3.70       0.0  T
   2    -22.4948575 -0.167666E-04  0.163E-01    3.70       1.0  T
   3    -22.4948396  0.179501E-04  0.455E-02    3.70       1.0  T
   4    -22.4948669 -0.273386E-04  0.160E-02    3.70       1.7  T
   5    -22.4948686 -0.165048E-05  0.794E-03    3.70       3.4  T
   6    -22.4948687 -0.111328E-06  0.219E-03    3.70      12.2  T
   7    -22.4948687 -0.200023E-07  0.116E-03    3.70      23.1  T
   8    -22.4948687 -0.553276E-08  0.721E-04    3.70      37.1  T
   9    -22.4948687 -0.296325E-08  0.267E-04    3.70     100.1  T
     SCC iter.                  ...        0 min,  0.004 sec
     gradient                   ...        0 min,  0.001 sec
 * total energy  :   -22.2471056 Eh     change       -0.1045460E-02 Eh
   gradient norm :     0.0044401 Eh/α   predicted    -0.1690915E-02 (  61.74%)
   displ. norm   :     0.0201279 α      lambda       -0.3717113E-04
   maximum displ.:     0.0103679 α      in ANC's #3, #31, #10, ...

........................................................................
.............................. CYCLE   40 ..............................
........................................................................

 iter      E             dE          RMSdq      gap      omega  full diag
   1    -22.4953079 -0.224953E+02  0.211E-02    3.70       0.0  T
   2    -22.4953079 -0.829618E-07  0.131E-02    3.70       2.0  T
   3    -22.4953080 -0.883497E-08  0.199E-03    3.70      13.4  T
   4    -22.4953080 -0.333821E-07  0.108E-03    3.70      24.7  T
   5    -22.4953080 -0.643074E-08  0.589E-04    3.70      45.4  T
   6    -22.4953080 -0.176216E-08  0.156E-04    3.70     170.9  T
     SCC iter.                  ...        0 min,  0.003 sec
     gradient                   ...        0 min,  0.001 sec
 * total energy  :   -22.2471323 Eh     change       -0.2663841E-04 Eh
   gradient norm :     0.0024766 Eh/α   predicted    -0.1859302E-04 ( -30.20%)
   displ. norm   :     0.0589342 α      lambda       -0.4105058E-04
   maximum displ.:     0.0465209 α      in ANC's #2, #31, #4, ...

........................................................................
.............................. CYCLE   41 ..............................
........................................................................

 iter      E             dE          RMSdq      gap      omega  full diag
   1    -22.4953632 -0.224954E+02  0.316E-02    3.70       0.0  T
   2    -22.4953634 -0.172043E-06  0.195E-02    3.70       1.4  T
   3    -22.4953626  0.785554E-06  0.769E-03    3.70       3.5  T
   4    -22.4953635 -0.904330E-06  0.135E-03    3.70      19.8  T
   5    -22.4953635 -0.111767E-07  0.646E-04    3.70      41.4  T
   6    -22.4953635 -0.470951E-09  0.236E-04    3.70     113.2  T
     SCC iter.                  ...        0 min,  0.003 sec
     gradient                   ...        0 min,  0.001 sec
 * total energy  :   -22.2471624 Eh     change       -0.3015928E-04 Eh
   gradient norm :     0.0039993 Eh/α   predicted    -0.2059751E-04 ( -31.70%)
   displ. norm   :     0.1055757 α      lambda       -0.4460034E-04
   maximum displ.:     0.0903155 α      in ANC's #2, #31, #4, ...

........................................................................
.............................. CYCLE   42 ..............................
........................................................................

 iter      E             dE          RMSdq      gap      omega  full diag
   1    -22.4949476 -0.224949E+02  0.508E-02    3.70       0.0  T
   2    -22.4949479 -0.326933E-06  0.310E-02    3.70       1.0  T
   3    -22.4949459  0.204586E-05  0.121E-02    3.70       2.2  T
   4    -22.4949481 -0.227115E-05  0.165E-03    3.70      16.2  T
   5    -22.4949482 -0.207632E-07  0.749E-04    3.70      35.7  T
   6    -22.4949482 -0.617028E-09  0.315E-04    3.70      84.7  T
     SCC iter.                  ...        0 min,  0.003 sec
     gradient                   ...        0 min,  0.001 sec
 * total energy  :   -22.2471897 Eh     change       -0.2726550E-04 Eh
   gradient norm :     0.0074768 Eh/α   predicted    -0.2254995E-04 ( -17.29%)
   displ. norm   :     0.0642894 α      lambda       -0.3676410E-04
   maximum displ.:     0.0540710 α      in ANC's #2, #1, #31, ...
 * RMSD in coord.:     0.4225902 α      energy gain  -0.1742680E-02 Eh

generating ANC from model Hessian ...
Using Lindh-Hessian (1995)
 Shifting diagonal of input Hessian by    5.3879598690735418E-003
 Lowest  eigenvalues of input Hessian
    0.000000    0.000000    0.000000    0.000000    0.000000    0.000000
    0.010000    0.012249    0.019569    0.022359    0.029281    0.038732
    0.053551    0.058148    0.062203    0.067910    0.081436    0.085056
 Highest eigenvalues
    1.275263    1.371644    1.431978    1.470725    1.750196    1.849012


........................................................................
.............................. CYCLE   43 ..............................
........................................................................

 iter      E             dE          RMSdq      gap      omega  full diag
   1    -22.4948599 -0.224949E+02  0.328E-02    3.69       0.0  T
   2    -22.4948601 -0.152312E-06  0.201E-02    3.69       1.3  T
   3    -22.4948596  0.512369E-06  0.629E-03    3.69       4.3  T
   4    -22.4948602 -0.584977E-06  0.124E-03    3.69      21.6  T
   5    -22.4948602 -0.115617E-07  0.595E-04    3.69      44.9  T
   6    -22.4948602 -0.842963E-09  0.293E-04    3.69      91.1  T
     SCC iter.                  ...        0 min,  0.003 sec
     gradient                   ...        0 min,  0.001 sec
 * total energy  :   -22.2472211 Eh     change       -0.3137319E-04 Eh
   gradient norm :     0.0065608 Eh/α   predicted     0.0000000E+00 (-100.00%)
   displ. norm   :     0.0457529 α      lambda       -0.7124252E-04
   maximum displ.:     0.0238070 α      in ANC's #1, #4, #2, ...

........................................................................
.............................. CYCLE   44 ..............................
........................................................................

 iter      E             dE          RMSdq      gap      omega  full diag
   1    -22.4952890 -0.224953E+02  0.328E-02    3.69       0.0  T
   2    -22.4952893 -0.296159E-06  0.202E-02    3.69       1.3  T
   3    -22.4952892  0.295260E-07  0.374E-03    3.69       7.1  T
   4    -22.4952893 -0.931574E-07  0.205E-03    3.69      13.0  T
   5    -22.4952894 -0.434440E-07  0.851E-04    3.69      31.4  T
   6    -22.4952894 -0.292496E-08  0.293E-04    3.69      91.2  T
     SCC iter.                  ...        0 min,  0.003 sec
     gradient                   ...        0 min,  0.001 sec
 * total energy  :   -22.2472780 Eh     change       -0.5693061E-04 Eh
   gradient norm :     0.0025460 Eh/α   predicted    -0.3569642E-04 ( -37.30%)
   displ. norm   :     0.1248789 α      lambda       -0.1095543E-03
   maximum displ.:     0.0671689 α      in ANC's #4, #1, #2, ...

........................................................................
.............................. CYCLE   45 ..............................
........................................................................

 iter      E             dE          RMSdq      gap      omega  full diag
   1    -22.4953475 -0.224953E+02  0.876E-02    3.69       0.0  T
   2    -22.4953493 -0.171063E-05  0.546E-02    3.69       1.0  T
   3    -22.4953488  0.413244E-06  0.992E-03    3.69       2.7  T
   4    -22.4953498 -0.906878E-06  0.481E-03    3.69       5.6  T
   5    -22.4953500 -0.229312E-06  0.218E-03    3.69      12.3  T
   6    -22.4953500 -0.118159E-07  0.539E-04    3.69      49.6  T
   7    -22.4953500 -0.750401E-09  0.201E-04    3.69     132.8  T
     SCC iter.                  ...        0 min,  0.003 sec
     gradient                   ...        0 min,  0.001 sec
 * total energy  :   -22.2473734 Eh     change       -0.9545288E-04 Eh
   gradient norm :     0.0022550 Eh/α   predicted    -0.5563198E-04 ( -41.72%)
   displ. norm   :     0.3760160 α      lambda       -0.2686149E-03
   maximum displ.:     0.2010012 α      in ANC's #4, #1, #2, ...

........................................................................
.............................. CYCLE   46 ..............................
........................................................................

 iter      E             dE          RMSdq      gap      omega  full diag
   1    -22.4900763 -0.224901E+02  0.259E-01    3.68       0.0  T
   2    -22.4900915 -0.151432E-04  0.161E-01    3.68       1.0  T
   3    -22.4900833  0.816173E-05  0.353E-02    3.68       1.0  T
   4    -22.4900967 -0.133748E-04  0.153E-02    3.68       1.7  T
   5    -22.4900990 -0.228970E-05  0.698E-03    3.68       3.8  T
   6    -22.4900991 -0.984839E-07  0.172E-03    3.68      15.5  T
   7    -22.4900991 -0.100864E-07  0.759E-04    3.68      35.2  T
   8    -22.4900991 -0.205760E-08  0.481E-04    3.68      55.6  T
     SCC iter.                  ...        0 min,  0.003 sec
     gradient                   ...        0 min,  0.001 sec
 * total energy  :   -22.2466937 Eh     change        0.6797056E-03 Eh
   gradient norm :     0.0373127 Eh/α   predicted    -0.1533030E-03 (-122.55%)
   displ. norm   :     0.2681496 α      lambda       -0.2410608E-02
   maximum displ.:     0.1571346 α      in ANC's #4, #2, #1, ...

........................................................................
.............................. CYCLE   47 ..............................
........................................................................

 iter      E             dE          RMSdq      gap      omega  full diag
   1    -22.4957767 -0.224958E+02  0.209E-01    3.69       0.0  T
   2    -22.4957888 -0.121377E-04  0.130E-01    3.69       1.0  T
   3    -22.4957842  0.461537E-05  0.305E-02    3.69       1.0  T
   4    -22.4957938 -0.962543E-05  0.139E-02    3.69       1.9  T
   5    -22.4957955 -0.164159E-05  0.661E-03    3.69       4.0  T
   6    -22.4957956 -0.107752E-06  0.186E-03    3.69      14.4  T
   7    -22.4957956 -0.114000E-07  0.806E-04    3.69      33.2  T
   8    -22.4957956 -0.267704E-08  0.492E-04    3.69      54.3  T
     SCC iter.                  ...        0 min,  0.003 sec
     gradient                   ...        0 min,  0.001 sec
 * total energy  :   -22.2474507 Eh     change       -0.7570010E-03 Eh
   gradient norm :     0.0015347 Eh/α   predicted    -0.1291971E-02 (  70.67%)
   displ. norm   :     0.0624211 α      lambda       -0.3069922E-04
   maximum displ.:     0.0457130 α      in ANC's #1, #4, #3, ...

........................................................................
.............................. CYCLE   48 ..............................
........................................................................

 iter      E             dE          RMSdq      gap      omega  full diag
   1    -22.4957566 -0.224958E+02  0.387E-02    3.68       0.0  T
   2    -22.4957569 -0.281561E-06  0.239E-02    3.68       1.1  T
   3    -22.4957565  0.332679E-06  0.581E-03    3.68       4.6  T
   4    -22.4957570 -0.422372E-06  0.203E-03    3.68      13.1  T
   5    -22.4957570 -0.418829E-07  0.929E-04    3.68      28.8  T
   6    -22.4957570 -0.131421E-08  0.163E-04    3.68     164.1  T
     SCC iter.                  ...        0 min,  0.003 sec
     gradient                   ...        0 min,  0.001 sec
 * total energy  :   -22.2474946 Eh     change       -0.4382925E-04 Eh
   gradient norm :     0.0011700 Eh/α   predicted    -0.1537639E-04 ( -64.92%)
   displ. norm   :     0.5504449 α      lambda       -0.2391056E-03
   maximum displ.:     0.4041832 α      in ANC's #1, #4, #3, ...

........................................................................
.............................. CYCLE   49 ..............................
........................................................................

 iter      E             dE          RMSdq      gap      omega  full diag
   1    -22.4873096 -0.224873E+02  0.321E-01    3.66       0.0  T
   2    -22.4873313 -0.216702E-04  0.194E-01    3.66       1.0  T
   3    -22.4873008  0.305046E-04  0.540E-02    3.67       1.0  T
   4    -22.4873372 -0.363806E-04  0.181E-02    3.66       1.5  T
   5    -22.4873406 -0.347346E-05  0.769E-03    3.66       3.5  T
   6    -22.4873407 -0.116987E-06  0.279E-03    3.66       9.6  T
   7    -22.4873408 -0.176746E-07  0.934E-04    3.66      28.6  T
   8    -22.4873408 -0.344534E-08  0.600E-04    3.66      44.6  T
     SCC iter.                  ...        0 min,  0.003 sec
     gradient                   ...        0 min,  0.001 sec
 * total energy  :   -22.2457419 Eh     change        0.1752698E-02 Eh
   gradient norm :     0.0530196 Eh/α   predicted    -0.1356512E-03 (-107.74%)
   displ. norm   :     0.2637811 α      lambda       -0.3797016E-02
   maximum displ.:     0.1598700 α      in ANC's #1, #4, #6, ...

........................................................................
.............................. CYCLE   50 ..............................
........................................................................

 iter      E             dE          RMSdq      gap      omega  full diag
   1    -22.4942740 -0.224943E+02  0.179E-01    3.67       0.0  T
   2    -22.4942838 -0.982332E-05  0.108E-01    3.67       1.0  T
   3    -22.4942739  0.993138E-05  0.340E-02    3.67       1.0  T
   4    -22.4942877 -0.138350E-04  0.126E-02    3.67       2.1  T
   5    -22.4942890 -0.124192E-05  0.592E-03    3.67       4.5  T
   6    -22.4942890 -0.811644E-07  0.215E-03    3.67      12.4  T
   7    -22.4942890 -0.136102E-07  0.773E-04    3.67      34.6  T
   8    -22.4942890 -0.239163E-08  0.461E-04    3.67      57.9  T
     SCC iter.                  ...        0 min,  0.003 sec
     gradient                   ...        0 min,  0.001 sec
 * total energy  :   -22.2475554 Eh     change       -0.1813552E-02 Eh
   gradient norm :     0.0123805 Eh/α   predicted    -0.2030607E-02 (  11.97%)
   displ. norm   :     0.0140011 α      lambda       -0.7651298E-04
   maximum displ.:     0.0077728 α      in ANC's #4, #2, #5, ...

........................................................................
.............................. CYCLE   51 ..............................
........................................................................

 iter      E             dE          RMSdq      gap      omega  full diag
   1    -22.4952536 -0.224953E+02  0.150E-02    3.68       0.0  T
   2    -22.4952537 -0.879258E-07  0.910E-03    3.68       2.9  T
   3    -22.4952537  0.379107E-08  0.230E-03    3.68      11.6  T
   4    -22.4952537 -0.391182E-07  0.125E-03    3.68      21.4  T
   5    -22.4952537 -0.123361E-07  0.580E-04    3.68      46.0  T
   6    -22.4952537 -0.106103E-08  0.240E-04    3.68     111.5  T
     SCC iter.                  ...        0 min,  0.003 sec
     gradient                   ...        0 min,  0.001 sec
 * total energy  :   -22.2476118 Eh     change       -0.5639583E-04 Eh
   gradient norm :     0.0068527 Eh/α   predicted    -0.3826347E-04 ( -32.15%)
   displ. norm   :     0.0187595 α      lambda       -0.4469890E-04
   maximum displ.:     0.0166459 α      in ANC's #1, #31, #4, ...

........................................................................
.............................. CYCLE   52 ..............................
........................................................................

 iter      E             dE          RMSdq      gap      omega  full diag
   1    -22.4960830 -0.224961E+02  0.168E-02    3.68       0.0  T
   2    -22.4960831 -0.825885E-07  0.103E-02    3.68       2.6  T
   3    -22.4960832 -0.433592E-07  0.146E-03    3.68      18.3  T
   4    -22.4960832 -0.659000E-09  0.894E-04    3.68      29.9  T
   5    -22.4960832 -0.323188E-08  0.527E-04    3.68      50.7  T
     SCC iter.                  ...        0 min,  0.002 sec
     gradient                   ...        0 min,  0.001 sec
 * total energy  :   -22.2476385 Eh     change       -0.2666630E-04 Eh
   gradient norm :     0.0017593 Eh/α   predicted    -0.2235849E-04 ( -16.15%)
   displ. norm   :     0.0318479 α      lambda       -0.1191709E-04
   maximum displ.:     0.0267907 α      in ANC's #1, #2, #4, ...

........................................................................
.............................. CYCLE   53 ..............................
........................................................................

 iter      E             dE          RMSdq      gap      omega  full diag
   1    -22.4962938 -0.224963E+02  0.164E-02    3.68       0.0  T
   2    -22.4962938 -0.268337E-07  0.995E-03    3.68       2.7  T
   3    -22.4962938  0.427174E-07  0.204E-03    3.68      13.1  T
   4    -22.4962938 -0.591853E-07  0.627E-04    3.68      42.6  T
   5    -22.4962938 -0.178574E-08  0.316E-04    3.68      84.7  T
     SCC iter.                  ...        0 min,  0.002 sec
     gradient                   ...        0 min,  0.001 sec
 * total energy  :   -22.2476537 Eh     change       -0.1520913E-04 Eh
   gradient norm :     0.0011877 Eh/α   predicted    -0.5963503E-05 ( -60.79%)
   displ. norm   :     0.1814796 α      lambda       -0.6058550E-04
   maximum displ.:     0.1425200 α      in ANC's #1, #2, #4, ...

........................................................................
.............................. CYCLE   54 ..............................
........................................................................

 iter      E             dE          RMSdq      gap      omega  full diag
   1    -22.4958005 -0.224958E+02  0.896E-02    3.68       0.0  T
   2    -22.4958013 -0.825474E-06  0.545E-02    3.68       1.0  T
   3    -22.4957991  0.217954E-05  0.131E-02    3.68       2.0  T
   4    -22.4958017 -0.255109E-05  0.322E-03    3.68       8.3  T
   5    -22.4958018 -0.893405E-07  0.153E-03    3.68      17.4  T
   6    -22.4958018 -0.260492E-08  0.256E-04    3.68     104.3  T
   7    -22.4958018 -0.113282E-09  0.101E-04    3.68     264.3  T
     SCC iter.                  ...        0 min,  0.003 sec
     gradient                   ...        0 min,  0.001 sec
 * total energy  :   -22.2477257 Eh     change       -0.7197145E-04 Eh
   gradient norm :     0.0032704 Eh/α   predicted    -0.3073709E-04 ( -57.29%)
   displ. norm   :     0.1619428 α      lambda       -0.6263799E-04
   maximum displ.:     0.1188388 α      in ANC's #1, #2, #4, ...

........................................................................
.............................. CYCLE   55 ..............................
........................................................................

 iter      E             dE          RMSdq      gap      omega  full diag
   1    -22.4946263 -0.224946E+02  0.821E-02    3.68       0.0  T
   2    -22.4946273 -0.100899E-05  0.499E-02    3.68       1.0  T
   3    -22.4946244  0.289364E-05  0.152E-02    3.68       1.8  T
   4    -22.4946278 -0.339102E-05  0.352E-03    3.68       7.6  T
   5    -22.4946279 -0.976546E-07  0.168E-03    3.68      15.9  T
   6    -22.4946279 -0.332320E-08  0.489E-04    3.68      54.7  T
   7    -22.4946279 -0.346905E-09  0.165E-04    3.68     162.2  T
     SCC iter.                  ...        0 min,  0.003 sec
     gradient                   ...        0 min,  0.001 sec
 * total energy  :   -22.2477244 Eh     change        0.1270525E-05 Eh
   gradient norm :     0.0113678 Eh/α   predicted    -0.3214000E-04 (*******%)
   displ. norm   :     0.0847579 α      lambda       -0.9478896E-04
   maximum displ.:     0.0683693 α      in ANC's #1, #2, #4, ...

........................................................................
[...]

 iter      E             dE          RMSdq      gap      omega  full diag
   1    -22.4966459 -0.224966E+02  0.406E-02    3.67       0.0  T
   2    -22.4966462 -0.280666E-06  0.258E-02    3.67       1.0  T
   3    -22.4966452  0.100987E-05  0.880E-03    3.67       3.0  T
   4    -22.4966464 -0.124965E-05  0.146E-03    3.67      18.3  T
   5    -22.4966464 -0.603599E-08  0.695E-04    3.67      38.4  T
   6    -22.4966464 -0.421661E-09  0.186E-04    3.67     143.4  T
     SCC iter.                  ...        0 min,  0.003 sec
     gradient                   ...        0 min,  0.001 sec
 * total energy  :   -22.2479730 Eh     change       -0.7829568E-05 Eh
   gradient norm :     0.0009324 Eh/α   predicted     0.0000000E+00 (-100.00%)
   displ. norm   :     0.0167712 α      lambda       -0.3330574E-05
   maximum displ.:     0.0100235 α      in ANC's #1, #4, #5, ...

........................................................................
.............................. CYCLE   68 ..............................
........................................................................

 iter      E             dE          RMSdq      gap      omega  full diag
   1    -22.4965324 -0.224965E+02  0.154E-02    3.67       0.0  T
   2    -22.4965325 -0.358647E-07  0.967E-03    3.67       2.8  T
   3    -22.4965325 -0.201359E-07  0.850E-04    3.67      31.4  T
   4    -22.4965325 -0.149766E-08  0.502E-04    3.67      53.2  T
     SCC iter.                  ...        0 min,  0.002 sec
     gradient                   ...        0 min,  0.001 sec
 * total energy  :   -22.2479770 Eh     change       -0.4045586E-05 Eh
   gradient norm :     0.0003307 Eh/α   predicted    -0.1665770E-05 ( -58.82%)
   displ. norm   :     0.0492293 α      lambda       -0.6304689E-05
   maximum displ.:     0.0283296 α      in ANC's #1, #4, #5, ...

   *** GEOMETRY OPTIMIZATION CONVERGED AFTER 68 ITERATIONS ***

------------------------------------------------------------------------
 total energy gain   :        -0.0734023 Eh      -46.0607 kcal/mol
 total RMSD          :         1.6961567 a0        0.8976 Å
 total power (kW/mol):        -2.8340847 (step) -562.2136 (real)
------------------------------------------------------------------------

 ANCopt (total)                0 d,  0 h,  0 min,  0.343 sec
 optimizer setup                ...        0 min,  0.000 sec (  0.039%)
 model hessian                  ...        0 min,  0.011 sec (  3.078%)
 ANC generation                 ...        0 min,  0.001 sec (  0.318%)
 coordinate transformation      ...        0 min,  0.000 sec (  0.075%)
 single point calculation       ...        0 min,  0.311 sec ( 90.822%)
 optimization log               ...        0 min,  0.005 sec (  1.431%)
 hessian update                 ...        0 min,  0.001 sec (  0.186%)
 rational function              ...        0 min,  0.006 sec (  1.843%)

================
 final structure:
================
14
 xtb: 6.6.1 (8d0f1dd)
O           -2.59336633465493       -0.52874522758422        0.71420397039280
O           -1.35377423481105        0.06691174519057        1.11930204132087
C           -0.59250017645361        0.39776818822679       -0.02288530782457
C            0.57424545244951        1.21540636227218        0.43452652607759
C            1.75207189501474        0.61873067687702        0.04399031563982
C            1.51551688046536       -0.54893202717381       -0.64428935148896
C            0.05288538266271       -0.81831492057909       -0.72639702060230
H           -3.04670098748704       -0.62960921479995        1.56061431584867
H           -1.24320743368671        0.95988288217395       -0.71214330614940
H            0.45690987117059        2.11330032353502        1.00806213313292
H            2.72916228602111        1.02141460924446        0.24809229414675
H            2.25494497195748       -1.20320948813746       -1.06634322300472
H           -0.28794842664036       -0.92781567274662       -1.75836713205237
H           -0.21823914600786       -1.73668823649894       -0.19836625543715

 Bond Distances (Angstroems)
 ---------------------------
O1-O2=1.4337         O1-H8=0.9655         O2-O1=1.4337         O2-C3=1.4119         C3-O2=1.4119         C3-C4=1.4963         
C3-C7=1.5461         C3-H9=1.1020         C4-C3=1.4963         C4-C5=1.3769         C4-H10=1.0719        C5-C4=1.3769         
C5-C6=1.3759         C5-H11=1.0763        C6-C5=1.3759         C6-C7=1.4895         C6-H12=1.0738        C7-C3=1.5461         
C7-C6=1.4895         C7-H13=1.0923        C7-H14=1.0935        H8-O1=0.9655         H9-C3=1.1020         H10-C4=1.0719        
H11-C5=1.0763        H12-C6=1.0738        H13-C7=1.0923        H14-C7=1.0935        
 C  H  Rav=1.0850 sigma=0.0115  Rmin=1.0719  Rmax=1.1020     6
 C  C  Rav=1.4569 sigma=0.0686  Rmin=1.3759  Rmax=1.5461     5
 O  H  Rav=0.9655 sigma=0.0000  Rmin=0.9655  Rmax=0.9655     1
 O  C  Rav=1.4119 sigma=0.0000  Rmin=1.4119  Rmax=1.4119     1
 O  O  Rav=1.4337 sigma=0.0000  Rmin=1.4337  Rmax=1.4337     1

 selected bond angles (degree)
 --------------------
H8-O1-O2=101.63                C3-O2-O1=109.57                C4-C3-O2=107.53                C7-C3-O2=114.13                
C7-C3-C4=104.09                H9-C3-O2=107.89                H9-C3-C4=111.89                H9-C3-C7=111.29                
C5-C4-C3=110.09                H10-C4-C3=122.41               H10-C4-C5=127.48               C6-C5-C4=111.26                
H11-C5-C4=124.10               H11-C5-C6=124.64               C7-C6-C5=110.48                H12-C6-C5=126.54               
H12-C6-C7=122.98               C6-C7-C3=104.04                H13-C7-C3=112.24               H13-C7-C6=112.12               
H14-C7-C3=109.72               H14-C7-C6=111.64               H14-C7-H13=107.14              

 selected dihedral angles (degree)
 ---------------------------------
C3-O2-O1-H8=185.04            C4-C3-O2-O1=170.70            C7-C3-O2-O1=285.61            H9-C3-O2-O1= 49.85            
C5-C4-C3-O2=122.84            C5-C4-C3-C7=  1.42            C5-C4-C3-H9=241.14            H10-C4-C3-O2=304.59           
H10-C4-C3-C7=183.17           H10-C4-C3-H9= 62.88           C6-C5-C4-C3=359.81            C6-C5-C4-H10=177.96           
H11-C5-C4-C3=179.45           H11-C5-C4-H10=357.60          C7-C6-C5-C4=358.78            C7-C6-C5-H11=179.14           
H12-C6-C5-C4=179.41           H12-C6-C5-H11=359.77          C6-C7-C3-O2=241.09            C6-C7-C3-C4=358.00            
C6-C7-C3-H9=118.69            H13-C7-C3-O2=119.64           H13-C7-C3-C4=236.56           H13-C7-C3-H9=357.25           
H14-C7-C3-O2=  0.65           H14-C7-C3-C4=117.56           H14-C7-C3-H9=238.25           C3-C7-C6-C5=  2.02            
C3-C7-C6-H12=181.42           H13-C7-C6-C5=123.55           H13-C7-C6-H12=302.94          H14-C7-C6-C5=243.78           
H14-C7-C6-H12= 63.17          
           -------------------------------------------------
          |                Final Singlepoint                |
           -------------------------------------------------

          ...................................................
          :                      SETUP                      :
          :.................................................:
          :  # basis functions                  35          :
          :  # atomic orbitals                  35          :
          :  # shells                           21          :
          :  # electrons                        39          :
          :  max. iterations                   250          :
          :  Hamiltonian                  GFN2-xTB          :
          :  restarted?                      false          :
          :  GBSA solvation                  false          :
          :  PC potential                    false          :
          :  electronic temp.          300.0000000     K    :
          :  accuracy                    1.0000000          :
          :  -> integral cutoff          0.2500000E+02      :
          :  -> integral neglect         0.1000000E-07      :
          :  -> SCF convergence          0.1000000E-05 Eh   :
          :  -> wf. convergence          0.1000000E-03 e    :
          :  Broyden damping             0.4000000          :
          ...................................................

 iter      E             dE          RMSdq      gap      omega  full diag
   1    -22.4965325 -0.224965E+02  0.274E-04    3.67       0.0  T
   2    -22.4965325  0.508926E-10  0.253E-04    3.67     105.5  T
   3    -22.4965325 -0.939036E-09  0.768E-05    3.67     348.0  T

   *** convergence criteria satisfied after 3 iterations ***

         #    Occupation            Energy/Eh            Energy/eV
      -------------------------------------------------------------
         1        2.0000           -0.7172523             -19.5174
       ...           ...                  ...                  ...
        14        2.0000           -0.4644221             -12.6376
        15        2.0000           -0.4591461             -12.4940
        16        2.0000           -0.4548594             -12.3774
        17        2.0000           -0.4508859             -12.2692
        18        2.0000           -0.4324546             -11.7677
        19        2.0000           -0.4035056             -10.9799
        20        1.0000           -0.3169529              -8.6247 (HOMO)
        21                         -0.1819948              -4.9523 (LUMO)
        22                         -0.1458967              -3.9701
        23                          0.0633484               1.7238
        24                          0.0803172               2.1855
        25                          0.1134141               3.0862
       ...                                ...                  ...
        35                          0.6191923              16.8491
      -------------------------------------------------------------
                  HL-Gap            0.1349581 Eh            3.6724 eV
             Fermi-level           -0.3048515 Eh           -8.2954 eV

 SCC (total)                   0 d,  0 h,  0 min,  0.003 sec
 SCC setup                      ...        0 min,  0.000 sec (  2.440%)
 Dispersion                     ...        0 min,  0.000 sec (  1.328%)
 classical contributions        ...        0 min,  0.000 sec (  0.289%)
 integral evaluation            ...        0 min,  0.000 sec ( 12.184%)
 iterations                     ...        0 min,  0.002 sec ( 48.623%)
 molecular gradient             ...        0 min,  0.001 sec ( 31.239%)
 printout                       ...        0 min,  0.000 sec (  3.503%)

         :::::::::::::::::::::::::::::::::::::::::::::::::::::
         ::                     SUMMARY                     ::
         :::::::::::::::::::::::::::::::::::::::::::::::::::::
         :: total energy             -22.247977042360 Eh    ::
         :: gradient norm              0.000331759951 Eh/a0 ::
         :: HOMO-LUMO gap              3.672397529072 eV    ::
         ::.................................................::
         :: SCC energy               -22.496532487396 Eh    ::
         :: -> isotropic ES            0.029273659643 Eh    ::
         :: -> anisotropic ES         -0.005014568198 Eh    ::
         :: -> anisotropic XC          0.000714679673 Eh    ::
         :: -> dispersion             -0.008639106554 Eh    ::
         :: repulsion energy           0.248543945173 Eh    ::
         :: add. restraining           0.000000000000 Eh    ::
         :: total charge               0.000000000000 e     ::
         :::::::::::::::::::::::::::::::::::::::::::::::::::::

           -------------------------------------------------
          |                Property Printout                |
           -------------------------------------------------

    * Orbital Energies and Occupations

         #    Occupation            Energy/Eh            Energy/eV
      -------------------------------------------------------------
         1        2.0000           -0.7172523             -19.5174
       ...           ...                  ...                  ...
         8        2.0000           -0.5671929             -15.4341
         9        2.0000           -0.5478283             -14.9072
        10        2.0000           -0.5405299             -14.7086
        11        2.0000           -0.5207653             -14.1707
        12        2.0000           -0.5096062             -13.8671
        13        2.0000           -0.4783963             -13.0178
        14        2.0000           -0.4644221             -12.6376
        15        2.0000           -0.4591461             -12.4940
        16        2.0000           -0.4548594             -12.3774
        17        2.0000           -0.4508859             -12.2692
        18        2.0000           -0.4324546             -11.7677
        19        2.0000           -0.4035056             -10.9799
        20        1.0000           -0.3169529              -8.6247 (HOMO)
        21                         -0.1819948              -4.9523 (LUMO)
        22                         -0.1458967              -3.9701
        23                          0.0633484               1.7238
        24                          0.0803172               2.1855
        25                          0.1134141               3.0862
        26                          0.1306933               3.5563
        27                          0.1421219               3.8673
        28                          0.1459198               3.9707
        29                          0.1616336               4.3983
        30                          0.2090247               5.6879
        31                          0.2445450               6.6544
       ...                                ...                  ...
        35                          0.6191923              16.8491
      -------------------------------------------------------------
                  HL-Gap            0.1349581 Eh            3.6724 eV
             Fermi-level           -0.3048515 Eh           -8.2954 eV

     #   Z          covCN         q      C6AA      α(0)
     1   8 O        1.729    -0.332    19.562     5.972
     2   8 O        1.773    -0.216    17.579     5.662
     3   6 C        3.772     0.126    18.557     6.138
     4   6 C        2.975    -0.057    29.413     8.896
     5   6 C        2.945    -0.028    28.709     8.788
     6   6 C        2.975    -0.043    29.059     8.842
     7   6 C        3.845    -0.069    21.792     6.640
     8   1 H        0.805     0.318     0.668     1.284
     9   1 H        0.923     0.047     2.364     2.404
    10   1 H        0.926     0.047     2.361     2.403
    11   1 H        0.926     0.041     2.431     2.438
    12   1 H        0.926     0.039     2.455     2.450
    13   1 H        0.924     0.054     2.276     2.359
    14   1 H        0.924     0.074     2.042     2.235

 Mol. C6AA /au·bohr⁶  :       1900.640840
 Mol. C8AA /au·bohr⁸  :      43266.130079
 Mol. α(0) /au        :         66.512234


Wiberg/Mayer (AO) data.
largest (>0.10) Wiberg bond orders for each atom

 ---------------------------------------------------------------------------
     #   Z sym  total        # sym  WBO       # sym  WBO       # sym  WBO
 ---------------------------------------------------------------------------
     1   8 O    1.904 --     2 O    0.965     8 H    0.892
     2   8 O    2.012 --     3 C    0.966     1 O    0.965
     3   6 C    3.940 --     4 C    1.008     7 C    0.978     2 O    0.966
                             9 H    0.938
     4   6 C    3.780 --     5 C    1.483     3 C    1.008    10 H    0.973
                             6 C    0.206
     5   6 C    3.991 --     4 C    1.483     6 C    1.479    11 H    0.968
     6   6 C    3.790 --     5 C    1.479     7 C    1.056    12 H    0.974
                             4 C    0.206
     7   6 C    3.997 --     6 C    1.056     3 C    0.978    13 H    0.954
                            14 H    0.943
     8   1 H    0.899 --     1 O    0.892
     9   1 H    0.997 --     3 C    0.938
    10   1 H    0.998 --     4 C    0.973
    11   1 H    0.997 --     5 C    0.968
    12   1 H    0.998 --     6 C    0.974
    13   1 H    0.997 --     7 C    0.954
    14   1 H    0.994 --     7 C    0.943
 ---------------------------------------------------------------------------

Topologies differ in total number of bonds
Writing topology from bond orders to xtbtopo.mol

molecular dipole:
                 x           y           z       tot (Debye)
 q only:        0.176      -0.067      -0.114
   full:        0.053      -0.077      -0.023       0.246
molecular quadrupole (traceless):
                xx          xy          yy          xz          yz          zz
 q only:        0.798       0.818      -0.500      -2.755      -0.269      -0.298
  q+dip:        0.853      -0.239      -0.063      -3.874       0.401      -0.790
   full:        0.899       0.449      -0.754      -3.891      -0.309      -0.145

           -------------------------------------------------
          |                Geometry Summary                 |
           -------------------------------------------------

      molecular mass/u    :       99.1080746
   center of mass at/Å    :       -0.2304532       0.0261351       0.1757554
  moments of inertia/u·Å² :        0.7697676E+02   0.2620956E+03   0.3168603E+03
rotational constants/cm⁻¹ :        0.2189964E+00   0.6431865E-01   0.5320210E-01

 * 12 selected distances

     #   Z          #   Z                                           value/Å
     1   8 O        2   8 O                                       1.4337017
     2   8 O        3   6 C                                       1.4119478
     4   6 C        5   6 C                                       1.3768863
     5   6 C        6   6 C                                       1.3759083
     6   6 C        7   6 C                                       1.4894966 (max)
     1   8 O        8   1 H                                       0.9654514 (min)
     3   6 C        9   1 H                                       1.1020298
     4   6 C       10   1 H                                       1.0718790
     5   6 C       11   1 H                                       1.0763447
     6   6 C       12   1 H                                       1.0737610
     7   6 C       13   1 H                                       1.0923006
     7   6 C       14   1 H                                       1.0934966

 * 5 distinct bonds (by element types)

   Z      Z             #   av. dist./Å        max./Å        min./Å
   1 H    6 C           6     1.0849686     1.1020298     1.0718790
   6 C    6 C           3     1.4140971     1.4894966     1.3759083
   1 H    8 O           1     0.9654514     0.9654514     0.9654514
   6 C    8 O           1     1.4119478     1.4119478     1.4119478
   8 O    8 O           1     1.4337017     1.4337017     1.4337017


optimized geometry written to: xtbopt.xyz


           -------------------------------------------------
          | TOTAL ENERGY              -22.247977042360 Eh   |
          | GRADIENT NORM               0.000331759951 Eh/α |
          | HOMO-LUMO GAP               3.672397529072 eV   |
           -------------------------------------------------

------------------------------------------------------------------------
 * finished run on 2025/05/23 at 12:03:01.792     
------------------------------------------------------------------------
 total:
 * wall-time:     0 d,  0 h,  0 min,  0.362 sec
 *  cpu-time:     0 d,  0 h,  0 min,  2.529 sec
 * ratio c/w:     6.978 speedup
 SCF:
 * wall-time:     0 d,  0 h,  0 min,  0.009 sec
 *  cpu-time:     0 d,  0 h,  0 min,  0.057 sec
 * ratio c/w:     6.572 speedup
 ANC optimizer:
 * wall-time:     0 d,  0 h,  0 min,  0.347 sec
 *  cpu-time:     0 d,  0 h,  0 min,  2.423 sec
 * ratio c/w:     6.985 speedup

