
                                 *****************
                                 * O   R   C   A *
                                 *****************

                                            #,                                       
                                            ###                                      
                                            ####                                     
                                            #####                                    
                                            ######                                   
                                           ########,                                 
                                     ,,################,,,,,                         
                               ,,#################################,,                 
                          ,,##########################################,,             
                       ,#########################################, ''#####,          
                    ,#############################################,,   '####,        
                  ,##################################################,,,,####,       
                ,###########''''           ''''###############################       
              ,#####''   ,,,,##########,,,,          '''####'''          '####       
            ,##' ,,,,###########################,,,                        '##       
           ' ,,###''''                  '''############,,,                           
         ,,##''                                '''############,,,,        ,,,,,,###''
      ,#''                                            '''#######################'''  
     '                                                          ''''####''''         
             ,#######,   #######,   ,#######,      ##                                
            ,#'     '#,  ##    ##  ,#'     '#,    #''#        ######   ,####,        
            ##       ##  ##   ,#'  ##            #'  '#       #        #'  '#        
            ##       ##  #######   ##           ,######,      #####,   #    #        
            '#,     ,#'  ##    ##  '#,     ,#' ,#      #,         ##   #,  ,#        
             '#######'   ##     ##  '#######'  #'      '#     #####' # '####'        



                  #######################################################
                  #                        -***-                        #
                  #          Department of theory and spectroscopy      #
                  #    Directorship and core code : Frank Neese         #
                  #        Max Planck Institute fuer Kohlenforschung    #
                  #                Kaiser Wilhelm Platz 1               #
                  #                 D-45470 Muelheim/Ruhr               #
                  #                      Germany                        #
                  #                                                     #
                  #                  All rights reserved                #
                  #                        -***-                        #
                  #######################################################


                         Program Version 5.0.4 -  RELEASE  -


 With contributions from (in alphabetic order):
   Daniel Aravena         : Magnetic Suceptibility
   Michael Atanasov       : Ab Initio Ligand Field Theory (pilot matlab implementation)
   Alexander A. Auer      : GIAO ZORA, VPT2 properties, NMR spectrum
   Ute Becker             : Parallelization
   Giovanni Bistoni       : ED, misc. LED, open-shell LED, HFLD
   Martin Brehm           : Molecular dynamics
   Dmytro Bykov           : SCF Hessian
   Vijay G. Chilkuri      : MRCI spin determinant printing, contributions to CSF-ICE
   Dipayan Datta          : RHF DLPNO-CCSD density
   Achintya Kumar Dutta   : EOM-CC, STEOM-CC
   Dmitry Ganyushin       : Spin-Orbit,Spin-Spin,Magnetic field MRCI
   Miquel Garcia          : C-PCM and meta-GGA Hessian, CC/C-PCM, Gaussian charge scheme
   Yang Guo               : DLPNO-NEVPT2, F12-NEVPT2, CIM, IAO-localization
   Andreas Hansen         : Spin unrestricted coupled pair/coupled cluster methods
   Benjamin Helmich-Paris : MC-RPA, TRAH-SCF, COSX integrals
   Lee Huntington         : MR-EOM, pCC
   Robert Izsak           : Overlap fitted RIJCOSX, COSX-SCS-MP3, EOM
   Marcus Kettner         : VPT2
   Christian Kollmar      : KDIIS, OOCD, Brueckner-CCSD(T), CCSD density, CASPT2, CASPT2-K
   Simone Kossmann        : Meta GGA functionals, TD-DFT gradient, OOMP2, MP2 Hessian
   Martin Krupicka        : Initial AUTO-CI
   Lucas Lang             : DCDCAS
   Marvin Lechner         : AUTO-CI (C++ implementation), FIC-MRCC
   Dagmar Lenk            : GEPOL surface, SMD
   Dimitrios Liakos       : Extrapolation schemes; Compound Job, initial MDCI parallelization
   Dimitrios Manganas     : Further ROCIS development; embedding schemes
   Dimitrios Pantazis     : SARC Basis sets
   Anastasios Papadopoulos: AUTO-CI, single reference methods and gradients
   Taras Petrenko         : DFT Hessian,TD-DFT gradient, ASA, ECA, R-Raman, ABS, FL, XAS/XES, NRVS
   Peter Pinski           : DLPNO-MP2, DLPNO-MP2 Gradient
   Christoph Reimann      : Effective Core Potentials
   Marius Retegan         : Local ZFS, SOC
   Christoph Riplinger    : Optimizer, TS searches, QM/MM, DLPNO-CCSD(T), (RO)-DLPNO pert. Triples
   Tobias Risthaus        : Range-separated hybrids, TD-DFT gradient, RPA, STAB
   Michael Roemelt        : Original ROCIS implementation
   Masaaki Saitow         : Open-shell DLPNO-CCSD energy and density
   Barbara Sandhoefer     : DKH picture change effects
   Avijit Sen             : IP-ROCIS
   Kantharuban Sivalingam : CASSCF convergence, NEVPT2, FIC-MRCI
   Bernardo de Souza      : ESD, SOC TD-DFT
   Georgi Stoychev        : AutoAux, RI-MP2 NMR, DLPNO-MP2 response
   Willem Van den Heuvel  : Paramagnetic NMR
   Boris Wezisla          : Elementary symmetry handling
   Frank Wennmohs         : Technical directorship


 We gratefully acknowledge several colleagues who have allowed us to
 interface, adapt or use parts of their codes:
   Stefan Grimme, W. Hujo, H. Kruse, P. Pracht,  : VdW corrections, initial TS optimization,
                  C. Bannwarth, S. Ehlert          DFT functionals, gCP, sTDA/sTD-DF
   Ed Valeev, F. Pavosevic, A. Kumar             : LibInt (2-el integral package), F12 methods
   Garnet Chan, S. Sharma, J. Yang, R. Olivares  : DMRG
   Ulf Ekstrom                                   : XCFun DFT Library
   Mihaly Kallay                                 : mrcc  (arbitrary order and MRCC methods)
   Jiri Pittner, Ondrej Demel                    : Mk-CCSD
   Frank Weinhold                                : gennbo (NPA and NBO analysis)
   Christopher J. Cramer and Donald G. Truhlar   : smd solvation model
   Lars Goerigk                                  : TD-DFT with DH, B97 family of functionals
   V. Asgeirsson, H. Jonsson                     : NEB implementation
   FAccTs GmbH                                   : IRC, NEB, NEB-TS, DLPNO-Multilevel, CI-OPT
                                                   MM, QMMM, 2- and 3-layer-ONIOM, Crystal-QMMM,
                                                   LR-CPCM, SF, NACMEs, symmetry and pop. for TD-DFT,
                                                   nearIR, NL-DFT gradient (VV10), updates on ESD,
                                                   ML-optimized integration grids
   S Lehtola, MJT Oliveira, MAL Marques          : LibXC Library
   Liviu Ungur et al                             : ANISO software


 Your calculation uses the libint2 library for the computation of 2-el integrals
 For citations please refer to: http://libint.valeyev.net

 Your ORCA version has been built with support for libXC version: 5.1.0
 For citations please refer to: https://tddft.org/programs/libxc/

 This ORCA versions uses:
   CBLAS   interface :  Fast vector & matrix operations
   LAPACKE interface :  Fast linear algebra routines
   SCALAPACK package :  Parallel linear algebra routines
   Shared memory     :  Shared parallel matrices
   BLAS/LAPACK       :  OpenBLAS 0.3.15  USE64BITINT DYNAMIC_ARCH NO_AFFINITY SkylakeX SINGLE_THREADED
        Core in use  :  SkylakeX
   Copyright (c) 2011-2014, The OpenBLAS Project


Your calculation utilizes the atom-pairwise dispersion correction
with the Becke-Johnson damping scheme (D3BJ)
Cite in your paper:
S.Grimme, S.Ehrlich, L.Goerigk, J Comput Chem, (2011), 32, 1456–1465 
S.Grimme, J.Antony, S.Ehrlich and H.Krieg, J.Chem.Phys., 132, (2010), 154104 
   

================================================================================

----- Orbital basis set information -----
Your calculation utilizes the basis: def2-SVP
   F. Weigend and R. Ahlrichs, Phys. Chem. Chem. Phys. 7, 3297 (2005).

----- AuxJ basis set information -----
Your calculation utilizes the auxiliary basis: def2/J
   F. Weigend, Phys. Chem. Chem. Phys. 8, 1057 (2006).

================================================================================
                                        WARNINGS
                       Please study these warnings very carefully!
================================================================================


WARNING: your system is open-shell and RHF/RKS was chosen
  ===> : WILL SWITCH to UHF/UKS


INFO   : the flag for use of the SHARK integral package has been found!

================================================================================
                                       INPUT FILE
================================================================================
NAME = 14_0_orca.inp
|  1> ! EnGrad PBE0 RIJCOSX D3BJ def2-SVP def2/J 
|  2> %output 
|  3> xyzfile=True 
|  4> end 
|  5> %scf 
|  6> maxiter 250 
|  7> end
|  8> %output
|  9> Print[P_Hirshfeld] = 1
| 10> end
| 11> % maxcore
| 12> 4000
| 13> *xyz 0 2
| 14> O   -2.38244176  -0.21425681   1.58897143 
| 15> O   -0.55373197  -0.29201471   0.84922618 
| 16> C   -0.73856498   0.21529382  -0.43822397 
| 17> C    0.15146248   0.90347479   0.53068362 
| 18> C    1.52121895   0.43118291   0.27667028 
| 19> C    1.36772553  -0.61979182  -0.53062186 
| 20> C    0.09653432  -0.65431609  -1.31710017 
| 21> H   -2.10169174   0.38409403   2.30124120 
| 22> H   -1.74266249   0.58107541  -0.67048660 
| 23> H   -0.13445425   1.80146482   1.08355724 
| 24> H    2.41638763   0.71045813   0.83052781 
| 25> H    2.18379360  -1.30962292  -0.77012070 
| 26> H    0.26133068  -0.27628738  -2.34035796 
| 27> H   -0.34490600  -1.66065883  -1.39397117 
| 28> *
| 29> 
| 30>                          ****END OF INPUT****
================================================================================

                     *******************************
                     * Energy+Gradient Calculation *
                     *******************************

---------------------------------
CARTESIAN COORDINATES (ANGSTROEM)
---------------------------------
  O     -2.382442   -0.214257    1.588971
  O     -0.553732   -0.292015    0.849226
  C     -0.738565    0.215294   -0.438224
  C      0.151462    0.903475    0.530684
  C      1.521219    0.431183    0.276670
  C      1.367726   -0.619792   -0.530622
  C      0.096534   -0.654316   -1.317100
  H     -2.101692    0.384094    2.301241
  H     -1.742662    0.581075   -0.670487
  H     -0.134454    1.801465    1.083557
  H      2.416388    0.710458    0.830528
  H      2.183794   -1.309623   -0.770121
  H      0.261331   -0.276287   -2.340358
  H     -0.344906   -1.660659   -1.393971

----------------------------
CARTESIAN COORDINATES (A.U.)
----------------------------
  NO LB      ZA    FRAG     MASS         X           Y           Z
   0 O     8.0000    0    15.999   -4.502162   -0.404887    3.002721
   1 O     8.0000    0    15.999   -1.046402   -0.551828    1.604805
   2 C     6.0000    0    12.011   -1.395686    0.406846   -0.828123
   3 C     6.0000    0    12.011    0.286223    1.707320    1.002847
   4 C     6.0000    0    12.011    2.874687    0.814818    0.522831
   5 C     6.0000    0    12.011    2.584627   -1.171237   -1.002730
   6 C     6.0000    0    12.011    0.182423   -1.236478   -2.488959
   7 H     1.0000    0     1.008   -3.971622    0.725833    4.348716
   8 H     1.0000    0     1.008   -3.293155    1.098073   -1.267036
   9 H     1.0000    0     1.008   -0.254082    3.404275    2.047626
  10 H     1.0000    0     1.008    4.566311    1.342571    1.569470
  11 H     1.0000    0     1.008    4.126772   -2.474829   -1.455317
  12 H     1.0000    0     1.008    0.493843   -0.522107   -4.422636
  13 H     1.0000    0     1.008   -0.651778   -3.138190   -2.634224

--------------------------------
INTERNAL COORDINATES (ANGSTROEM)
--------------------------------
 O      0   0   0     0.000000000000     0.00000000     0.00000000
 O      1   0   0     1.974195740536     0.00000000     0.00000000
 C      2   1   0     1.396084909642   102.04032404     0.00000000
 C      2   1   3     1.424065911204   120.62761764    66.20825955
 C      4   2   1     1.470991224963   103.30936496   169.22727647
 C      5   4   2     1.334102212122   104.49464115    47.16514941
 C      3   2   1     1.491990486349   104.91142251   221.43908626
 H      1   2   3     0.971685405218    91.79280433   240.32522891
 H      3   2   1     1.093596776909   116.03742384     4.80206551
 H      4   2   1     1.092613248211   116.56313767    25.92773892
 H      5   4   2     1.089072898247   126.52938986   241.63372018
 H      6   5   4     1.095077045583   122.87812707   191.02882541
 H      7   3   2     1.103231639616   115.48359842   193.17213147
 H      7   3   2     1.101591765180   110.44235384    70.35381353

---------------------------
INTERNAL COORDINATES (A.U.)
---------------------------
 O      0   0   0     0.000000000000     0.00000000     0.00000000
 O      1   0   0     3.730689284368     0.00000000     0.00000000
 C      2   1   0     2.638218138924   102.04032404     0.00000000
 C      2   1   3     2.691094568828   120.62761764    66.20825955
 C      4   2   1     2.779770560582   103.30936496   169.22727647
 C      5   4   2     2.521087815568   104.49464115    47.16514941
 C      3   2   1     2.819453413616   104.91142251   221.43908626
 H      1   2   3     1.836219304191    91.79280433   240.32522891
 H      3   2   1     2.066598409297   116.03742384     4.80206551
 H      4   2   1     2.064739809412   116.56313767    25.92773892
 H      5   4   2     2.058049517563   126.52938986   241.63372018
 H      6   5   4     2.069395711695   122.87812707   191.02882541
 H      7   3   2     2.084805661151   115.48359842   193.17213147
 H      7   3   2     2.081706747574   110.44235384    70.35381353

---------------------
BASIS SET INFORMATION
---------------------
There are 3 groups of distinct atoms

 Group   1 Type O   : 7s4p1d contracted to 3s2p1d pattern {511/31/1}
 Group   2 Type C   : 7s4p1d contracted to 3s2p1d pattern {511/31/1}
 Group   3 Type H   : 4s1p contracted to 2s1p pattern {31/1}

Atom   0O    basis set group =>   1
Atom   1O    basis set group =>   1
Atom   2C    basis set group =>   2
Atom   3C    basis set group =>   2
Atom   4C    basis set group =>   2
Atom   5C    basis set group =>   2
Atom   6C    basis set group =>   2
Atom   7H    basis set group =>   3
Atom   8H    basis set group =>   3
Atom   9H    basis set group =>   3
Atom  10H    basis set group =>   3
Atom  11H    basis set group =>   3
Atom  12H    basis set group =>   3
Atom  13H    basis set group =>   3
---------------------------------
AUXILIARY/J BASIS SET INFORMATION
---------------------------------
There are 3 groups of distinct atoms

 Group   1 Type O   : 12s5p4d2f1g contracted to 6s4p3d1f1g pattern {711111/2111/211/2/1}
 Group   2 Type C   : 12s5p4d2f1g contracted to 6s4p3d1f1g pattern {711111/2111/211/2/1}
 Group   3 Type H   : 5s2p1d contracted to 3s1p1d pattern {311/2/1}

Atom   0O    basis set group =>   1
Atom   1O    basis set group =>   1
Atom   2C    basis set group =>   2
Atom   3C    basis set group =>   2
Atom   4C    basis set group =>   2
Atom   5C    basis set group =>   2
Atom   6C    basis set group =>   2
Atom   7H    basis set group =>   3
Atom   8H    basis set group =>   3
Atom   9H    basis set group =>   3
Atom  10H    basis set group =>   3
Atom  11H    basis set group =>   3
Atom  12H    basis set group =>   3
Atom  13H    basis set group =>   3
------------------------------------------------------------------------------
                           ORCA GTO INTEGRAL CALCULATION
                           -- RI-GTO INTEGRALS CHOSEN --
------------------------------------------------------------------------------
------------------------------------------------------------------------------
                   ___                                                        
                  /   \      - P O W E R E D   B Y -                         
                 /     \                                                     
                 |  |  |   _    _      __       _____    __    __             
                 |  |  |  | |  | |    /  \     |  _  \  |  |  /  |          
                  \  \/   | |  | |   /    \    | | | |  |  | /  /          
                 / \  \   | |__| |  /  /\  \   | |_| |  |  |/  /          
                |  |  |   |  __  | /  /__\  \  |    /   |      \           
                |  |  |   | |  | | |   __   |  |    \   |  |\   \          
                \     /   | |  | | |  |  |  |  | |\  \  |  | \   \       
                 \___/    |_|  |_| |__|  |__|  |_| \__\ |__|  \__/        
                                                                              
                      - O R C A' S   B I G   F R I E N D -                    
                                      &                                       
                       - I N T E G R A L  F E E D E R -                       
                                                                              
 v1 FN, 2020, v2 2021                                                         
------------------------------------------------------------------------------


Reading SHARK input file 14_0_orca.SHARKINP.tmp ... ok
----------------------
SHARK INTEGRAL PACKAGE
----------------------

Number of atoms                             ...     14
Number of basis functions                   ...    133
Number of shells                            ...     63
Maximum angular momentum                    ...      2
Integral batch strategy                     ... SHARK/LIBINT Hybrid
RI-J (if used) integral strategy            ... SPLIT-RIJ (Revised 2003 algorithm where possible)
Printlevel                                  ...      1
Contraction scheme used                     ... SEGMENTED contraction
Coulomb Range Separation                    ... NOT USED
Exchange Range Separation                   ... NOT USED
Finite Nucleus Model                        ... NOT USED
Auxiliary Coulomb fitting basis             ... AVAILABLE
   # of basis functions in Aux-J            ...    420
   # of shells in Aux-J                     ...    140
   Maximum angular momentum in Aux-J        ...      4
Auxiliary J/K fitting basis                 ... NOT available
Auxiliary Correlation fitting basis         ... NOT available
Auxiliary 'external' fitting basis          ... NOT available
Integral threshold                          ...     2.500000e-11
Primitive cut-off                           ...     2.500000e-12
Primitive pair pre-selection threshold      ...     2.500000e-12

Calculating pre-screening integrals         ... done (  0.0 sec) Dimension = 63
Organizing shell pair data                  ... done (  0.0 sec)
Shell pair information
Total number of shell pairs                 ...      2016
Shell pairs after pre-screening             ...      1954
Total number of primitive shell pairs       ...      7252
Primitive shell pairs kept                  ...      5373
          la=0 lb=0:    606 shell pairs
          la=1 lb=0:    713 shell pairs
          la=1 lb=1:    225 shell pairs
          la=2 lb=0:    238 shell pairs
          la=2 lb=1:    144 shell pairs
          la=2 lb=2:     28 shell pairs

Calculating one electron integrals          ... done (  0.0 sec)
Calculating RI/J V-Matrix + Cholesky decomp.... done (  0.0 sec)
Calculating Nuclear repulsion               ... done (  0.0 sec) ENN=    305.468374788763 Eh

SHARK setup successfully completed in   0.1 seconds

Maximum memory used throughout the entire GTOINT-calculation: 16.9 MB
-------------------------------------------------------------------------------
                                 ORCA SCF
-------------------------------------------------------------------------------

------------
SCF SETTINGS
------------
Hamiltonian:
 Density Functional     Method          .... DFT(GTOs)
 Exchange Functional    Exchange        .... PBE
   PBE kappa parameter   XKappa         ....  0.804000
   PBE mue parameter    XMuePBE         ....  0.219520
 Correlation Functional Correlation     .... PBE
   PBE beta parameter  CBetaPBE         ....  0.066725
 LDA part of GGA corr.  LDAOpt          .... PW91-LDA
 Gradients option       PostSCFGGA      .... off
 Hybrid DFT is turned on
   Fraction HF Exchange ScalHFX         ....  0.250000
   Scaling of DF-GGA-X  ScalDFX         ....  0.750000
   Scaling of DF-GGA-C  ScalDFC         ....  1.000000
   Scaling of DF-LDA-C  ScalLDAC        ....  1.000000
   Perturbative correction              ....  0.000000
   Density functional embedding theory  .... OFF
   NL short-range parameter             ....  6.900000
 RI-approximation to the Coulomb term is turned on
   Number of AuxJ basis functions       .... 420
   RIJ-COSX (HFX calculated with COS-X)).... on


General Settings:
 Integral files         IntName         .... 14_0_orca
 Hartree-Fock type      HFTyp           .... UHF
 Total Charge           Charge          ....    0
 Multiplicity           Mult            ....    2
 Number of Electrons    NEL             ....   53
 Basis Dimension        Dim             ....  133
 Nuclear Repulsion      ENuc            ....    305.4683747888 Eh

Convergence Acceleration:
 DIIS                   CNVDIIS         .... on
   Start iteration      DIISMaxIt       ....    12
   Startup error        DIISStart       ....  0.200000
   # of expansion vecs  DIISMaxEq       ....     5
   Bias factor          DIISBfac        ....   1.050
   Max. coefficient     DIISMaxC        ....  10.000
 Trust-Rad. Augm. Hess. CNVTRAH         .... auto
   Auto Start mean grad. ratio tolernc. ....  1.125000
   Auto Start start iteration           ....    20
   Auto Start num. interpolation iter.  ....    10
   Max. Number of Micro iterations      ....    16
   Max. Number of Macro iterations      .... Maxiter - #DIIS iter
   Number of Davidson start vectors     ....     2
   Converg. threshold I  (grad. norm)   ....   1.000e-05
   Converg. threshold II (energy diff.) ....   1.000e-08
   Grad. Scal. Fac. for Micro threshold ....   0.100
   Minimum threshold for Micro iter.    ....   0.010
   NR start threshold (gradient norm)   ....   0.001
   Initial trust radius                 ....   0.400
   Minimum AH scaling param. (alpha)    ....   1.000
   Maximum AH scaling param. (alpha)    .... 1000.000
   Orbital update algorithm             .... Taylor
   White noise on init. David. guess    .... on
   Maximum white noise                  ....   0.010
   Quad. conv. algorithm                .... NR
 SOSCF                  CNVSOSCF        .... off
 Level Shifting         CNVShift        .... on
   Level shift para.    LevelShift      ....    0.2500
   Turn off err/grad.   ShiftErr        ....    0.0010
 Zerner damping         CNVZerner       .... off
 Static damping         CNVDamp         .... on
   Fraction old density DampFac         ....    0.7000
   Max. Damping (<1)    DampMax         ....    0.9800
   Min. Damping (>=0)   DampMin         ....    0.0000
   Turn off err/grad.   DampErr         ....    0.1000
 Fernandez-Rico         CNVRico         .... off

SCF Procedure:
 Maximum # iterations   MaxIter         ....   250
 SCF integral mode      SCFMode         .... Direct
   Integral package                     .... SHARK and LIBINT hybrid scheme
 Reset frequency        DirectResetFreq ....    20
 Integral Threshold     Thresh          ....  2.500e-11 Eh
 Primitive CutOff       TCut            ....  2.500e-12 Eh

Convergence Tolerance:
 Convergence Check Mode ConvCheckMode   .... Total+1el-Energy
 Convergence forced     ConvForced      .... 0
 Energy Change          TolE            ....  1.000e-08 Eh
 1-El. energy change                    ....  1.000e-05 Eh
 DIIS Error             TolErr          ....  5.000e-07


Diagonalization of the overlap matrix:
Smallest eigenvalue                        ... 6.700e-04
Time for diagonalization                   ...    0.002 sec
Threshold for overlap eigenvalues          ... 1.000e-08
Number of eigenvalues below threshold      ... 0
Time for construction of square roots      ...    0.001 sec
Total time needed                          ...    0.003 sec

Time for model grid setup =    0.120 sec

------------------------------
INITIAL GUESS: MODEL POTENTIAL
------------------------------
Loading Hartree-Fock densities                     ... done
Calculating cut-offs                               ... done
Initializing the effective Hamiltonian             ... done
Setting up the integral package (SHARK)            ... done
Starting the Coulomb interaction                   ... done (   0.1 sec)
Reading the grid                                   ... done
Mapping shells                                     ... done
Starting the XC term evaluation                    ... done (   0.1 sec)
  promolecular density results
     # of electrons  =     52.997798480
     EX              =    -43.917145034
     EC              =     -1.763340726
     EX+EC           =    -45.680485760
Transforming the Hamiltonian                       ... done (   0.0 sec)
Diagonalizing the Hamiltonian                      ... done (   0.0 sec)
Back transforming the eigenvectors                 ... done (   0.0 sec)
Now organizing SCF variables                       ... done
                      ------------------
                      INITIAL GUESS DONE (   0.3 sec)
                      ------------------
-------------------
DFT GRID GENERATION
-------------------

General Integration Accuracy     IntAcc      ... 4.388
Radial Grid Type                 RadialGrid  ... OptM3 with GC (2021)
Angular Grid (max. ang.)         AngularGrid ... 4 (Lebedev-302)
Angular grid pruning method      GridPruning ... 4 (adaptive)
Weight generation scheme         WeightScheme... Becke
Basis function cutoff            BFCut       ... 1.0000e-11
Integration weight cutoff        WCut        ... 1.0000e-14
Angular grids for H and He will be reduced by one unit
Partially contracted basis set               ... off
Rotationally invariant grid construction     ... off

Total number of grid points                  ...    64847
Total number of batches                      ...     1022
Average number of points per batch           ...       63
Average number of grid points per atom       ...     4632
Time for grid setup =    0.489 sec

--------------------
COSX GRID GENERATION
--------------------

GRIDX 1
-------
General Integration Accuracy     IntAcc      ... 3.816
Radial Grid Type                 RadialGrid  ... OptM3 with GC (2021)
Angular Grid (max. ang.)         AngularGrid ... 1 (Lebedev-50)
Angular grid pruning method      GridPruning ... 4 (adaptive)
Weight generation scheme         WeightScheme... Becke
Basis function cutoff            BFCut       ... 1.0000e-11
Integration weight cutoff        WCut        ... 1.0000e-14
Angular grids for H and He will be reduced by one unit
Partially contracted basis set               ... on
Rotationally invariant grid construction     ... off

Total number of grid points                  ...     8299
Total number of batches                      ...      136
Average number of points per batch           ...       61
Average number of grid points per atom       ...      593
UseSFitting                                  ... on

GRIDX 2
-------
General Integration Accuracy     IntAcc      ... 4.020
Radial Grid Type                 RadialGrid  ... OptM3 with GC (2021)
Angular Grid (max. ang.)         AngularGrid ... 2 (Lebedev-110)
Angular grid pruning method      GridPruning ... 4 (adaptive)
Weight generation scheme         WeightScheme... Becke
Basis function cutoff            BFCut       ... 1.0000e-11
Integration weight cutoff        WCut        ... 1.0000e-14
Angular grids for H and He will be reduced by one unit
Partially contracted basis set               ... on
Rotationally invariant grid construction     ... off

Total number of grid points                  ...    18028
Total number of batches                      ...      288
Average number of points per batch           ...       62
Average number of grid points per atom       ...     1288
UseSFitting                                  ... on

GRIDX 3
-------
General Integration Accuracy     IntAcc      ... 4.338
Radial Grid Type                 RadialGrid  ... OptM3 with GC (2021)
Angular Grid (max. ang.)         AngularGrid ... 3 (Lebedev-194)
Angular grid pruning method      GridPruning ... 4 (adaptive)
Weight generation scheme         WeightScheme... Becke
Basis function cutoff            BFCut       ... 1.0000e-11
Integration weight cutoff        WCut        ... 1.0000e-14
Angular grids for H and He will be reduced by one unit
Partially contracted basis set               ... on
Rotationally invariant grid construction     ... off

Total number of grid points                  ...    39602
Total number of batches                      ...      626
Average number of points per batch           ...       63
Average number of grid points per atom       ...     2829
UseSFitting                                  ... on

Time for X-Grid setup             =    0.553 sec

--------------
SCF ITERATIONS
--------------
ITER       Energy         Delta-E        Max-DP      RMS-DP      [F,P]     Damp
               ***  Starting incremental Fock matrix formation  ***
  0   -344.1446477542   0.000000000000 0.05323476  0.00151399  0.1576117 0.7000
  1   -344.2361102117  -0.091462457503 0.04034174  0.00102701  0.0605159 0.7000
                               ***Turning on DIIS***
  2   -344.2736073679  -0.037497156196 0.08444918  0.00171429  0.0226050 0.0000
  3   -344.3384107265  -0.064803358615 0.02852634  0.00089020  0.0533559 0.0000
  4   -344.3524279493  -0.014017222736 0.00949734  0.00034887  0.0097998 0.0000
  5   -344.3535557779  -0.001127828654 0.00604619  0.00021023  0.0071529 0.0000
  6   -344.3540803967  -0.000524618714 0.00420895  0.00010900  0.0040151 0.0000
  7   -344.3542461070  -0.000165710350 0.00179414  0.00005184  0.0019418 0.0000
  8   -344.3542992511  -0.000053144119 0.00145167  0.00003460  0.0012475 0.0000
  9   -344.3543206872  -0.000021436115 0.00145217  0.00004251  0.0005754 0.0000
               *** Restarting incremental Fock matrix formation ***
                                   *** Resetting DIIS ***
 10   -344.3543140688   0.000006618421 0.00038501  0.00001023  0.0001659 0.0000
 11   -344.3543149324  -0.000000863616 0.00016666  0.00000436  0.0001372 0.0000
 12   -344.3543153400  -0.000000407574 0.00035435  0.00000589  0.0001185 0.0000
 13   -344.3543158108  -0.000000470769 0.00033606  0.00000543  0.0000852 0.0000
 14   -344.3543161184  -0.000000307606 0.00039193  0.00000610  0.0000546 0.0000
 15   -344.3543162854  -0.000000166986 0.00007501  0.00000117  0.0000199 0.0000
 16   -344.3543162977  -0.000000012380 0.00004944  0.00000077  0.0000107 0.0000
 17   -344.3543162994  -0.000000001619 0.00001356  0.00000024  0.0000040 0.0000
 18   -344.3543163046  -0.000000005228 0.00000684  0.00000012  0.0000034 0.0000
                 **** Energy Check signals convergence ****

               *****************************************************
               *                     SUCCESS                       *
               *           SCF CONVERGED AFTER  19 CYCLES          *
               *****************************************************

Old exchange energy                            =    -11.198928538 Eh
New exchange energy                            =    -11.198919137 Eh
Exchange energy change after final integration =      0.000009401 Eh
Total energy after final integration           =   -344.354306905 Eh
Final COS-X integration done in                =     5.270 sec

----------------
TOTAL SCF ENERGY
----------------

Total Energy       :         -344.35430690 Eh           -9370.35707 eV

Components:
Nuclear Repulsion  :          305.46837479 Eh            8312.21706 eV
Electronic Energy  :         -649.82268169 Eh          -17682.57413 eV
One Electron Energy:        -1074.08865588 Eh          -29227.43822 eV
Two Electron Energy:          424.26597418 Eh           11544.86409 eV
Max COSX asymmetry :            0.00000076 Eh               0.00002 eV

Virial components:
Potential Energy   :         -686.19278051 Eh          -18672.25484 eV
Kinetic Energy     :          341.83847361 Eh            9301.89777 eV
Virial Ratio       :            2.00735971


DFT components:
N(Alpha)           :       26.999996604813 electrons
N(Beta)            :       25.999995583268 electrons
N(Total)           :       52.999992188081 electrons
E(X)               :      -33.516649139980 Eh       
E(C)               :       -1.777888847336 Eh       
E(XC)              :      -35.294537987316 Eh       
DFET-embed. en.    :        0.000000000000 Eh       

---------------
SCF CONVERGENCE
---------------

  Last Energy change         ...   -1.4070e-09  Tolerance :   1.0000e-08
  Last MAX-Density change    ...    0.0000e+00  Tolerance :   1.0000e-07
  Last RMS-Density change    ...    0.0000e+00  Tolerance :   5.0000e-09
  Last DIIS Error            ...    1.6266e-06  Tolerance :   5.0000e-07

             **** THE GBW FILE WAS UPDATED (14_0_orca.gbw) ****
             **** DENSITY 14_0_orca.scfp WAS UPDATED ****
             **** ENERGY FILE WAS UPDATED (14_0_orca.en.tmp) ****
----------------------
UHF SPIN CONTAMINATION
----------------------

Warning: in a DFT calculation there is little theoretical justification to 
         calculate <S**2> as in Hartree-Fock theory. We will do it anyways
         but you should keep in mind that the values have only limited relevance

Expectation value of <S**2>     :     0.753493
Ideal value S*(S+1) for S=0.5   :     0.750000
Deviation                       :     0.003493

             **** THE GBW FILE WAS UPDATED (14_0_orca.gbw) ****
             **** DENSITY 14_0_orca.scfp WAS UPDATED ****
----------------
ORBITAL ENERGIES
----------------
                 SPIN UP ORBITALS
  NO   OCC          E(Eh)            E(eV) 
   0   1.0000     -19.243829      -523.6512 
   1   1.0000     -19.190476      -522.1994 
   2   1.0000     -10.297825      -280.2181 
   3   1.0000     -10.292911      -280.0844 
   4   1.0000     -10.248084      -278.8645 
   5   1.0000     -10.246161      -278.8122 
   6   1.0000     -10.240165      -278.6491 
   7   1.0000      -1.144038       -31.1309 
   8   1.0000      -0.952181       -25.9102 
   9   1.0000      -0.849651       -23.1202 
  10   1.0000      -0.757062       -20.6007 
  11   1.0000      -0.686052       -18.6684 
  12   1.0000      -0.607395       -16.5281 
  13   1.0000      -0.575028       -15.6473 
  14   1.0000      -0.570561       -15.5258 
  15   1.0000      -0.484747       -13.1906 
  16   1.0000      -0.475695       -12.9443 
  17   1.0000      -0.448162       -12.1951 
  18   1.0000      -0.423500       -11.5240 
  19   1.0000      -0.414466       -11.2782 
  20   1.0000      -0.401130       -10.9153 
  21   1.0000      -0.386130       -10.5071 
  22   1.0000      -0.363051        -9.8791 
  23   1.0000      -0.329569        -8.9680 
  24   1.0000      -0.290133        -7.8949 
  25   1.0000      -0.276205        -7.5159 
  26   1.0000      -0.238560        -6.4916 
  27   0.0000      -0.010539        -0.2868 
  28   0.0000       0.069199         1.8830 
  29   0.0000       0.095310         2.5935 
  30   0.0000       0.105706         2.8764 
  31   0.0000       0.114067         3.1039 
  32   0.0000       0.129187         3.5154 
  33   0.0000       0.141286         3.8446 
  34   0.0000       0.143418         3.9026 
  35   0.0000       0.151102         4.1117 
  36   0.0000       0.177761         4.8371 
  37   0.0000       0.206081         5.6077 
  38   0.0000       0.222439         6.0529 
  39   0.0000       0.301477         8.2036 
  40   0.0000       0.312684         8.5086 
  41   0.0000       0.387525        10.5451 
  42   0.0000       0.399949        10.8832 
  43   0.0000       0.453900        12.3513 
  44   0.0000       0.471088        12.8190 
  45   0.0000       0.482722        13.1355 
  46   0.0000       0.501735        13.6529 
  47   0.0000       0.514701        14.0057 
  48   0.0000       0.553762        15.0686 
  49   0.0000       0.562721        15.3124 
  50   0.0000       0.567231        15.4351 
  51   0.0000       0.595957        16.2168 
  52   0.0000       0.620922        16.8962 
  53   0.0000       0.631118        17.1736 
  54   0.0000       0.644709        17.5434 
  55   0.0000       0.656636        17.8680 
  56   0.0000       0.668965        18.2035 
  57   0.0000       0.679482        18.4896 
  58   0.0000       0.683393        18.5961 
  59   0.0000       0.686168        18.6716 
  60   0.0000       0.705100        19.1868 
  61   0.0000       0.729150        19.8412 
  62   0.0000       0.765043        20.8179 
  63   0.0000       0.798925        21.7398 
  64   0.0000       0.844273        22.9738 
  65   0.0000       0.897729        24.4284 
  66   0.0000       0.940433        25.5905 
  67   0.0000       0.996298        27.1107 
  68   0.0000       1.000315        27.2200 
  69   0.0000       1.031890        28.0791 
  70   0.0000       1.073691        29.2166 
  71   0.0000       1.080343        29.3976 
  72   0.0000       1.108516        30.1643 
  73   0.0000       1.117521        30.4093 
  74   0.0000       1.214791        33.0561 
  75   0.0000       1.243116        33.8269 
  76   0.0000       1.303100        35.4592 
  77   0.0000       1.339122        36.4394 
  78   0.0000       1.450737        39.4766 
  79   0.0000       1.503850        40.9218 
  80   0.0000       1.512587        41.1596 
  81   0.0000       1.530948        41.6592 
  82   0.0000       1.551330        42.2138 
  83   0.0000       1.555666        42.3318 
  84   0.0000       1.613065        43.8937 
  85   0.0000       1.635967        44.5169 
  86   0.0000       1.672697        45.5164 
  87   0.0000       1.705796        46.4171 
  88   0.0000       1.724478        46.9254 
  89   0.0000       1.747917        47.5632 
  90   0.0000       1.777303        48.3629 
  91   0.0000       1.806878        49.1676 
  92   0.0000       1.819655        49.5153 
  93   0.0000       1.846311        50.2407 
  94   0.0000       1.873825        50.9894 
  95   0.0000       1.887642        51.3653 
  96   0.0000       1.942070        52.8464 
  97   0.0000       1.964166        53.4477 
  98   0.0000       1.986150        54.0459 
  99   0.0000       2.008430        54.6522 
 100   0.0000       2.063524        56.1513 
 101   0.0000       2.092796        56.9479 
 102   0.0000       2.123737        57.7898 
 103   0.0000       2.143044        58.3152 
 104   0.0000       2.194297        59.7099 
 105   0.0000       2.232702        60.7549 
 106   0.0000       2.247562        61.1593 
 107   0.0000       2.269922        61.7677 
 108   0.0000       2.302125        62.6440 
 109   0.0000       2.388407        64.9918 
 110   0.0000       2.425541        66.0023 
 111   0.0000       2.488698        67.7209 
 112   0.0000       2.517973        68.5175 
 113   0.0000       2.594445        70.5984 
 114   0.0000       2.670168        72.6590 
 115   0.0000       2.697609        73.4057 
 116   0.0000       2.731381        74.3247 
 117   0.0000       2.742044        74.6148 
 118   0.0000       2.778353        75.6028 
 119   0.0000       2.792729        75.9940 
 120   0.0000       2.842463        77.3473 
 121   0.0000       2.890145        78.6448 
 122   0.0000       2.933839        79.8338 
 123   0.0000       2.970240        80.8243 
 124   0.0000       3.019836        82.1739 
 125   0.0000       3.033619        82.5490 
 126   0.0000       3.056874        83.1818 
 127   0.0000       3.113670        84.7273 
 128   0.0000       3.175336        86.4053 
 129   0.0000       3.353957        91.2658 
 130   0.0000       3.407433        92.7210 
 131   0.0000       3.481698        94.7418 
 132   0.0000       3.757991       102.2601 

                 SPIN DOWN ORBITALS
  NO   OCC          E(Eh)            E(eV) 
   0   1.0000     -19.236814      -523.4603 
   1   1.0000     -19.166050      -521.5347 
   2   1.0000     -10.297799      -280.2174 
   3   1.0000     -10.293138      -280.0905 
   4   1.0000     -10.248048      -278.8636 
   5   1.0000     -10.245734      -278.8006 
   6   1.0000     -10.240188      -278.6497 
   7   1.0000      -1.135108       -30.8879 
   8   1.0000      -0.891545       -24.2602 
   9   1.0000      -0.844874       -22.9902 
  10   1.0000      -0.756723       -20.5915 
  11   1.0000      -0.682018       -18.5586 
  12   1.0000      -0.606318       -16.4988 
  13   1.0000      -0.572849       -15.5880 
  14   1.0000      -0.565069       -15.3763 
  15   1.0000      -0.476210       -12.9583 
  16   1.0000      -0.474058       -12.8998 
  17   1.0000      -0.440597       -11.9892 
  18   1.0000      -0.418023       -11.3750 
  19   1.0000      -0.410607       -11.1732 
  20   1.0000      -0.386067       -10.5054 
  21   1.0000      -0.380531       -10.3548 
  22   1.0000      -0.337422        -9.1817 
  23   1.0000      -0.306483        -8.3398 
  24   1.0000      -0.260092        -7.0775 
  25   1.0000      -0.253135        -6.8882 
  26   0.0000      -0.045489        -1.2378 
  27   0.0000      -0.007832        -0.2131 
  28   0.0000       0.071526         1.9463 
  29   0.0000       0.097012         2.6398 
  30   0.0000       0.106410         2.8956 
  31   0.0000       0.116133         3.1601 
  32   0.0000       0.131234         3.5711 
  33   0.0000       0.141702         3.8559 
  34   0.0000       0.144622         3.9354 
  35   0.0000       0.152048         4.1374 
  36   0.0000       0.181348         4.9347 
  37   0.0000       0.208445         5.6721 
  38   0.0000       0.223499         6.0817 
  39   0.0000       0.302086         8.2202 
  40   0.0000       0.312999         8.5171 
  41   0.0000       0.387668        10.5490 
  42   0.0000       0.400419        10.8960 
  43   0.0000       0.454751        12.3744 
  44   0.0000       0.471951        12.8424 
  45   0.0000       0.483306        13.1514 
  46   0.0000       0.502611        13.6767 
  47   0.0000       0.515668        14.0320 
  48   0.0000       0.555109        15.1053 
  49   0.0000       0.565381        15.3848 
  50   0.0000       0.568520        15.4702 
  51   0.0000       0.596845        16.2410 
  52   0.0000       0.622009        16.9257 
  53   0.0000       0.632724        17.2173 
  54   0.0000       0.646462        17.5911 
  55   0.0000       0.663529        18.0555 
  56   0.0000       0.669576        18.2201 
  57   0.0000       0.680413        18.5150 
  58   0.0000       0.683827        18.6079 
  59   0.0000       0.687548        18.7091 
  60   0.0000       0.705559        19.1992 
  61   0.0000       0.729817        19.8593 
  62   0.0000       0.765837        20.8395 
  63   0.0000       0.799818        21.7642 
  64   0.0000       0.845037        22.9946 
  65   0.0000       0.901524        24.5317 
  66   0.0000       0.951066        25.8798 
  67   0.0000       0.998229        27.1632 
  68   0.0000       1.029535        28.0151 
  69   0.0000       1.045022        28.4365 
  70   0.0000       1.087926        29.6040 
  71   0.0000       1.098298        29.8862 
  72   0.0000       1.122698        30.5502 
  73   0.0000       1.134202        30.8632 
  74   0.0000       1.229033        33.4437 
  75   0.0000       1.244605        33.8674 
  76   0.0000       1.310598        35.6632 
  77   0.0000       1.339882        36.4601 
  78   0.0000       1.452228        39.5171 
  79   0.0000       1.508952        41.0607 
  80   0.0000       1.516430        41.2642 
  81   0.0000       1.536274        41.8041 
  82   0.0000       1.555620        42.3306 
  83   0.0000       1.561460        42.4895 
  84   0.0000       1.615542        43.9611 
  85   0.0000       1.637681        44.5636 
  86   0.0000       1.675825        45.6015 
  87   0.0000       1.706322        46.4314 
  88   0.0000       1.726342        46.9762 
  89   0.0000       1.748858        47.5889 
  90   0.0000       1.778748        48.4022 
  91   0.0000       1.810459        49.2651 
  92   0.0000       1.820096        49.5273 
  93   0.0000       1.847955        50.2854 
  94   0.0000       1.876630        51.0657 
  95   0.0000       1.890075        51.4316 
  96   0.0000       1.943117        52.8749 
  97   0.0000       1.964935        53.4686 
  98   0.0000       1.987160        54.0734 
  99   0.0000       2.008988        54.6674 
 100   0.0000       2.064832        56.1869 
 101   0.0000       2.094374        56.9908 
 102   0.0000       2.125967        57.8505 
 103   0.0000       2.144194        58.3465 
 104   0.0000       2.195309        59.7374 
 105   0.0000       2.235347        60.8269 
 106   0.0000       2.258654        61.4611 
 107   0.0000       2.271978        61.8237 
 108   0.0000       2.303976        62.6944 
 109   0.0000       2.388666        64.9989 
 110   0.0000       2.426686        66.0335 
 111   0.0000       2.489546        67.7440 
 112   0.0000       2.518537        68.5329 
 113   0.0000       2.598656        70.7130 
 114   0.0000       2.673311        72.7445 
 115   0.0000       2.726655        74.1961 
 116   0.0000       2.746877        74.7463 
 117   0.0000       2.767787        75.3153 
 118   0.0000       2.793188        76.0065 
 119   0.0000       2.798850        76.1606 
 120   0.0000       2.865945        77.9863 
 121   0.0000       2.898761        78.8793 
 122   0.0000       2.954340        80.3917 
 123   0.0000       3.004009        81.7432 
 124   0.0000       3.031625        82.4947 
 125   0.0000       3.055019        83.1313 
 126   0.0000       3.076664        83.7203 
 127   0.0000       3.124116        85.0115 
 128   0.0000       3.180233        86.5385 
 129   0.0000       3.360985        91.4571 
 130   0.0000       3.413133        92.8761 
 131   0.0000       3.485796        94.8533 
 132   0.0000       3.779405       102.8428 

                    ********************************
                    * MULLIKEN POPULATION ANALYSIS *
                    ********************************

--------------------------------------------
MULLIKEN ATOMIC CHARGES AND SPIN POPULATIONS
--------------------------------------------
   0 O :   -0.277923    0.854937
   1 O :   -0.271649    0.151261
   2 C :    0.031040   -0.010681
   3 C :    0.062629   -0.000466
   4 C :    0.020575   -0.007407
   5 C :   -0.133519    0.026404
   6 C :    0.105227    0.000417
   7 H :    0.155311   -0.020986
   8 H :    0.058475    0.003082
   9 H :    0.040298    0.004381
  10 H :    0.036665    0.000565
  11 H :    0.035008   -0.001553
  12 H :    0.067269   -0.000040
  13 H :    0.070594    0.000086
Sum of atomic charges         :    0.0000000
Sum of atomic spin populations:    1.0000000

-----------------------------------------------------
MULLIKEN REDUCED ORBITAL CHARGES AND SPIN POPULATIONS
-----------------------------------------------------
CHARGE
  0 O s       :     3.857421  s :     3.857421
      pz      :     1.497198  p :     4.413249
      px      :     1.201313
      py      :     1.714737
      dz2     :     0.001028  d :     0.007254
      dxz     :     0.001231
      dyz     :     0.003001
      dx2y2   :     0.001204
      dxy     :     0.000790
  1 O s       :     3.866856  s :     3.866856
      pz      :     1.360401  p :     4.382245
      px      :     1.595840
      py      :     1.426004
      dz2     :     0.006047  d :     0.022548
      dxz     :     0.003176
      dyz     :     0.005756
      dx2y2   :     0.003577
      dxy     :     0.003992
  2 C s       :     3.194306  s :     3.194306
      pz      :     0.764676  p :     2.699157
      px      :     0.996728
      py      :     0.937753
      dz2     :     0.021836  d :     0.075497
      dxz     :     0.016963
      dyz     :     0.019448
      dx2y2   :     0.007639
      dxy     :     0.009612
  3 C s       :     3.181904  s :     3.181904
      pz      :     0.966513  p :     2.683089
      px      :     0.927919
      py      :     0.788658
      dz2     :     0.008601  d :     0.072378
      dxz     :     0.011498
      dyz     :     0.013363
      dx2y2   :     0.018821
      dxy     :     0.020096
  4 C s       :     3.155963  s :     3.155963
      pz      :     0.989950  p :     2.788703
      px      :     0.841307
      py      :     0.957446
      dz2     :     0.005729  d :     0.034759
      dxz     :     0.007838
      dyz     :     0.004842
      dx2y2   :     0.008242
      dxy     :     0.008109
  5 C s       :     3.213838  s :     3.213838
      pz      :     0.971461  p :     2.881606
      px      :     0.958795
      py      :     0.951350
      dz2     :     0.007832  d :     0.038076
      dxz     :     0.007183
      dyz     :     0.005637
      dx2y2   :     0.007904
      dxy     :     0.009519
  6 C s       :     2.929486  s :     2.929486
      pz      :     0.974736  p :     2.929543
      px      :     0.942577
      py      :     1.012230
      dz2     :     0.007875  d :     0.035745
      dxz     :     0.008072
      dyz     :     0.005480
      dx2y2   :     0.007225
      dxy     :     0.007091
  7 H s       :     0.777543  s :     0.777543
      pz      :     0.026537  p :     0.067145
      px      :     0.014064
      py      :     0.026544
  8 H s       :     0.918799  s :     0.918799
      pz      :     0.002512  p :     0.022727
      px      :     0.015084
      py      :     0.005131
  9 H s       :     0.937152  s :     0.937152
      pz      :     0.007113  p :     0.022550
      px      :     0.003465
      py      :     0.011973
 10 H s       :     0.938979  s :     0.938979
      pz      :     0.007823  p :     0.024356
      px      :     0.011774
      py      :     0.004759
 11 H s       :     0.941542  s :     0.941542
      pz      :     0.004665  p :     0.023450
      px      :     0.010155
      py      :     0.008630
 12 H s       :     0.909425  s :     0.909425
      pz      :     0.013156  p :     0.023306
      px      :     0.004432
      py      :     0.005718
 13 H s       :     0.906102  s :     0.906102
      pz      :     0.004274  p :     0.023305
      px      :     0.005817
      py      :     0.013213

SPIN
  0 O s       :     0.012151  s :     0.012151
      pz      :     0.106463  p :     0.842429
      px      :     0.723691
      py      :     0.012275
      dz2     :    -0.000083  d :     0.000357
      dxz     :     0.000323
      dyz     :     0.000027
      dx2y2   :    -0.000110
      dxy     :     0.000200
  1 O s       :     0.013205  s :     0.013205
      pz      :     0.029273  p :     0.137360
      px      :     0.093993
      py      :     0.014095
      dz2     :    -0.000174  d :     0.000696
      dxz     :     0.000510
      dyz     :     0.000012
      dx2y2   :     0.000296
      dxy     :     0.000053
  2 C s       :    -0.001732  s :    -0.001732
      pz      :    -0.006842  p :    -0.010035
      px      :    -0.001362
      py      :    -0.001831
      dz2     :     0.000212  d :     0.001087
      dxz     :     0.000647
      dyz     :     0.000004
      dx2y2   :     0.000038
      dxy     :     0.000185
  3 C s       :    -0.000388  s :    -0.000388
      pz      :     0.000564  p :    -0.001229
      px      :    -0.000459
      py      :    -0.001334
      dz2     :     0.000052  d :     0.001152
      dxz     :    -0.000003
      dyz     :     0.000002
      dx2y2   :     0.001207
      dxy     :    -0.000107
  4 C s       :    -0.001782  s :    -0.001782
      pz      :    -0.005203  p :    -0.005877
      px      :     0.004103
      py      :    -0.004778
      dz2     :     0.000057  d :     0.000253
      dxz     :     0.000048
      dyz     :     0.000015
      dx2y2   :     0.000085
      dxy     :     0.000047
  5 C s       :     0.003975  s :     0.003975
      pz      :     0.010378  p :     0.022518
      px      :     0.002749
      py      :     0.009392
      dz2     :    -0.000014  d :    -0.000090
      dxz     :    -0.000009
      dyz     :    -0.000043
      dx2y2   :    -0.000034
      dxy     :     0.000011
  6 C s       :    -0.000485  s :    -0.000485
      pz      :     0.000472  p :     0.000862
      px      :    -0.000474
      py      :     0.000865
      dz2     :    -0.000026  d :     0.000040
      dxz     :     0.000026
      dyz     :     0.000003
      dx2y2   :    -0.000006
      dxy     :     0.000043
  7 H s       :    -0.026825  s :    -0.026825
      pz      :     0.000775  p :     0.005839
      px      :     0.005403
      py      :    -0.000339
  8 H s       :     0.003167  s :     0.003167
      pz      :    -0.000048  p :    -0.000085
      px      :    -0.000030
      py      :    -0.000007
  9 H s       :     0.004431  s :     0.004431
      pz      :    -0.000025  p :    -0.000050
      px      :    -0.000012
      py      :    -0.000014
 10 H s       :     0.000584  s :     0.000584
      pz      :     0.000019  p :    -0.000018
      px      :    -0.000004
      py      :    -0.000034
 11 H s       :    -0.001723  s :    -0.001723
      pz      :     0.000083  p :     0.000170
      px      :     0.000026
      py      :     0.000061
 12 H s       :    -0.000058  s :    -0.000058
      pz      :    -0.000002  p :     0.000018
      px      :     0.000014
      py      :     0.000006
 13 H s       :     0.000093  s :     0.000093
      pz      :    -0.000000  p :    -0.000007
      px      :    -0.000005
      py      :    -0.000002


                     *******************************
                     * LOEWDIN POPULATION ANALYSIS *
                     *******************************

-------------------------------------------
LOEWDIN ATOMIC CHARGES AND SPIN POPULATIONS
-------------------------------------------
   0 O :   -0.184506    0.809304
   1 O :   -0.068437    0.167595
   2 C :    0.058268   -0.004900
   3 C :    0.047290    0.002292
   4 C :   -0.057102   -0.004269
   5 C :   -0.001381    0.020062
   6 C :   -0.046515    0.001139
   7 H :    0.040796    0.004407
   8 H :    0.026801    0.001711
   9 H :    0.024504    0.002412
  10 H :    0.034844    0.000361
  11 H :    0.027610   -0.000131
  12 H :    0.046489    0.000009
  13 H :    0.051338    0.000008

----------------------------------------------------
LOEWDIN REDUCED ORBITAL CHARGES AND SPIN POPULATIONS
----------------------------------------------------
CHARGE
  0 O s       :     3.679870  s :     3.679870
      pz      :     1.541315  p :     4.491413
      px      :     1.215989
      py      :     1.734109
      dz2     :     0.001336  d :     0.013224
      dxz     :     0.002192
      dyz     :     0.006439
      dx2y2   :     0.002007
      dxy     :     0.001249
  1 O s       :     3.545929  s :     3.545929
      pz      :     1.416449  p :     4.484600
      px      :     1.581453
      py      :     1.486698
      dz2     :     0.009895  d :     0.037908
      dxz     :     0.005077
      dyz     :     0.010651
      dx2y2   :     0.005626
      dxy     :     0.006659
  2 C s       :     2.852938  s :     2.852938
      pz      :     0.867254  p :     2.921741
      px      :     1.054683
      py      :     0.999804
      dz2     :     0.044539  d :     0.167052
      dxz     :     0.040140
      dyz     :     0.044081
      dx2y2   :     0.015547
      dxy     :     0.022744
  3 C s       :     2.856047  s :     2.856047
      pz      :     1.026277  p :     2.935814
      px      :     0.992901
      py      :     0.916636
      dz2     :     0.018933  d :     0.160849
      dxz     :     0.026256
      dyz     :     0.029212
      dx2y2   :     0.044614
      dxy     :     0.041834
  4 C s       :     2.874188  s :     2.874188
      pz      :     1.035023  p :     3.092034
      px      :     1.020454
      py      :     1.036558
      dz2     :     0.012463  d :     0.090880
      dxz     :     0.020432
      dyz     :     0.013787
      dx2y2   :     0.023059
      dxy     :     0.021140
  5 C s       :     2.879269  s :     2.879269
      pz      :     0.995289  p :     3.028572
      px      :     1.001760
      py      :     1.031523
      dz2     :     0.016321  d :     0.093540
      dxz     :     0.018553
      dyz     :     0.014984
      dx2y2   :     0.020312
      dxy     :     0.023370
  6 C s       :     2.836940  s :     2.836940
      pz      :     1.036981  p :     3.116642
      px      :     1.025900
      py      :     1.053761
      dz2     :     0.020559  d :     0.092933
      dxz     :     0.021868
      dyz     :     0.013505
      dx2y2   :     0.018953
      dxy     :     0.018047
  7 H s       :     0.776273  s :     0.776273
      pz      :     0.075092  p :     0.182930
      px      :     0.037245
      py      :     0.070594
  8 H s       :     0.900676  s :     0.900676
      pz      :     0.010711  p :     0.072523
      px      :     0.044378
      py      :     0.017434
  9 H s       :     0.905143  s :     0.905143
      pz      :     0.022153  p :     0.070354
      px      :     0.013549
      py      :     0.034651
 10 H s       :     0.893792  s :     0.893792
      pz      :     0.022647  p :     0.071364
      px      :     0.034585
      py      :     0.014131
 11 H s       :     0.903009  s :     0.903009
      pz      :     0.014943  p :     0.069381
      px      :     0.030489
      py      :     0.023948
 12 H s       :     0.886695  s :     0.886695
      pz      :     0.037383  p :     0.066816
      px      :     0.013319
      py      :     0.016113
 13 H s       :     0.881174  s :     0.881174
      pz      :     0.012323  p :     0.067488
      px      :     0.017469
      py      :     0.037696

SPIN
  0 O s       :     0.011999  s :     0.011999
      pz      :     0.098235  p :     0.797124
      px      :     0.689352
      py      :     0.009537
      dz2     :    -0.000050  d :     0.000181
      dxz     :     0.000317
      dyz     :    -0.000263
      dx2y2   :     0.000096
      dxy     :     0.000080
  1 O s       :     0.018564  s :     0.018564
      pz      :     0.030376  p :     0.148136
      px      :     0.105332
      py      :     0.012428
      dz2     :    -0.000140  d :     0.000895
      dxz     :     0.000596
      dyz     :    -0.000000
      dx2y2   :     0.000421
      dxy     :     0.000018
  2 C s       :    -0.000931  s :    -0.000931
      pz      :    -0.004034  p :    -0.006881
      px      :    -0.000641
      py      :    -0.002206
      dz2     :     0.000724  d :     0.002913
      dxz     :     0.001722
      dyz     :    -0.000019
      dx2y2   :     0.000131
      dxy     :     0.000355
  3 C s       :    -0.000405  s :    -0.000405
      pz      :     0.000972  p :     0.000331
      px      :    -0.000247
      py      :    -0.000394
      dz2     :     0.000023  d :     0.002366
      dxz     :     0.000001
      dyz     :     0.000089
      dx2y2   :     0.002320
      dxy     :    -0.000066
  4 C s       :     0.000260  s :     0.000260
      pz      :    -0.003288  p :    -0.005244
      px      :     0.002277
      py      :    -0.004234
      dz2     :     0.000113  d :     0.000715
      dxz     :     0.000097
      dyz     :     0.000029
      dx2y2   :     0.000336
      dxy     :     0.000141
  5 C s       :     0.001154  s :     0.001154
      pz      :     0.009543  p :     0.019062
      px      :     0.003055
      py      :     0.006464
      dz2     :    -0.000070  d :    -0.000153
      dxz     :     0.000042
      dyz     :    -0.000050
      dx2y2   :    -0.000057
      dxy     :    -0.000017
  6 C s       :     0.000240  s :     0.000240
      pz      :     0.000324  p :     0.000784
      px      :    -0.000096
      py      :     0.000555
      dz2     :    -0.000037  d :     0.000116
      dxz     :     0.000075
      dyz     :     0.000009
      dx2y2   :    -0.000015
      dxy     :     0.000083
  7 H s       :    -0.018328  s :    -0.018328
      pz      :     0.004791  p :     0.022735
      px      :     0.017094
      py      :     0.000850
  8 H s       :     0.001975  s :     0.001975
      pz      :    -0.000140  p :    -0.000265
      px      :    -0.000044
      py      :    -0.000081
  9 H s       :     0.002470  s :     0.002470
      pz      :     0.000065  p :    -0.000058
      px      :     0.000006
      py      :    -0.000129
 10 H s       :     0.000415  s :     0.000415
      pz      :    -0.000027  p :    -0.000054
      px      :     0.000064
      py      :    -0.000090
 11 H s       :    -0.000792  s :    -0.000792
      pz      :     0.000299  p :     0.000661
      px      :     0.000144
      py      :     0.000218
 12 H s       :    -0.000071  s :    -0.000071
      pz      :     0.000011  p :     0.000080
      px      :     0.000041
      py      :     0.000029
 13 H s       :     0.000008  s :     0.000008
      pz      :     0.000012  p :    -0.000000
      px      :    -0.000014
      py      :     0.000002


                      *****************************
                      * MAYER POPULATION ANALYSIS *
                      *****************************

  NA   - Mulliken gross atomic population
  ZA   - Total nuclear charge
  QA   - Mulliken gross atomic charge
  VA   - Mayer's total valence
  BVA  - Mayer's bonded valence
  FA   - Mayer's free valence

  ATOM       NA         ZA         QA         VA         BVA        FA
  0 O      8.2779     8.0000    -0.2779     2.0117     1.3229     0.6889
  1 O      8.2716     8.0000    -0.2716     2.1117     2.0866     0.0250
  2 C      5.9690     6.0000     0.0310     3.9525     3.9524     0.0001
  3 C      5.9374     6.0000     0.0626     3.9180     3.9179     0.0000
  4 C      5.9794     6.0000     0.0206     3.7887     3.7886     0.0001
  5 C      6.1335     6.0000    -0.1335     3.9886     3.9881     0.0005
  6 C      5.8948     6.0000     0.1052     3.8082     3.8081     0.0000
  7 H      0.8447     1.0000     0.1553     1.0157     1.0146     0.0011
  8 H      0.9415     1.0000     0.0585     1.0211     1.0211     0.0000
  9 H      0.9597     1.0000     0.0403     0.9934     0.9934     0.0000
 10 H      0.9633     1.0000     0.0367     0.9898     0.9898     0.0000
 11 H      0.9650     1.0000     0.0350     0.9879     0.9879     0.0000
 12 H      0.9327     1.0000     0.0673     0.9803     0.9803     0.0000
 13 H      0.9294     1.0000     0.0706     0.9830     0.9830     0.0000

  Mayer bond orders larger than 0.100000
B(  0-O ,  1-O ) :   0.2121 B(  0-O ,  7-H ) :   0.9973 B(  1-O ,  2-C ) :   0.9032 
B(  1-O ,  3-C ) :   0.9028 B(  2-C ,  3-C ) :   1.0159 B(  2-C ,  6-C ) :   0.9997 
B(  2-C ,  8-H ) :   0.9601 B(  3-C ,  4-C ) :   0.9768 B(  3-C ,  9-H ) :   0.9773 
B(  4-C ,  5-C ) :   1.8291 B(  4-C , 10-H ) :   0.9956 B(  5-C ,  6-C ) :   1.0231 
B(  5-C , 11-H ) :   0.9666 B(  6-C , 12-H ) :   0.9259 B(  6-C , 13-H ) :   0.9201 



------------------
HIRSHFELD ANALYSIS
------------------

Total integrated alpha density =     26.999996605
Total integrated beta density  =     25.999995583

  ATOM     CHARGE      SPIN    
   0 O   -0.273767    0.782926
   1 O   -0.109495    0.164668
   2 C    0.055609    0.000414
   3 C    0.042908    0.005717
   4 C   -0.052977   -0.000159
   5 C   -0.019989    0.017418
   6 C   -0.038633    0.002292
   7 H    0.128523    0.021449
   8 H    0.048537    0.001798
   9 H    0.049470    0.001867
  10 H    0.047068    0.000210
  11 H    0.035948    0.001030
  12 H    0.041604    0.000241
  13 H    0.045201    0.000130

  TOTAL   0.000008    1.000001

-------
TIMINGS
-------

Total SCF time: 0 days 0 hours 0 min 56 sec 

Total time                  ....      56.357 sec
Sum of individual times     ....      56.204 sec  ( 99.7%)

Fock matrix formation       ....      54.313 sec  ( 96.4%)
  Split-RI-J                ....       3.312 sec  (  6.1% of F)
  Chain of spheres X        ....      36.894 sec  ( 67.9% of F)
  XC integration            ....      14.114 sec  ( 26.0% of F)
    Basis function eval.    ....       4.013 sec  ( 28.4% of XC)
    Density eval.           ....       3.876 sec  ( 27.5% of XC)
    XC-Functional eval.     ....       1.359 sec  (  9.6% of XC)
    XC-Potential eval.      ....       4.537 sec  ( 32.1% of XC)
Diagonalization             ....       0.087 sec  (  0.2%)
Density matrix formation    ....       0.007 sec  (  0.0%)
Population analysis         ....       0.396 sec  (  0.7%)
Initial guess               ....       0.218 sec  (  0.4%)
Orbital Transformation      ....       0.000 sec  (  0.0%)
Orbital Orthonormalization  ....       0.000 sec  (  0.0%)
DIIS solution               ....       0.022 sec  (  0.0%)
Grid generation             ....       1.161 sec  (  2.1%)

Maximum memory used throughout the entire SCF-calculation: 63.5 MB


-------------------------------------------------------------------------------
                          DFT DISPERSION CORRECTION                            
                                                                               
                              DFTD3 V3.1  Rev 1                                
                          USING Becke-Johnson damping                          
-------------------------------------------------------------------------------
The PBE0 functional is recognized
Active option DFTDOPT                   ...         4   

molecular C6(AA) [au] = 1733.851497 


            DFT-D V3
 parameters
 s6 scaling factor         :     1.0000 
 a1 scaling factor         :     0.4145 
 s8 scaling factor         :     1.2177 
 a2 scaling factor         :     4.8593 
 ad hoc parameters k1-k3   :    16.0000     1.3333    -4.0000 

 Edisp/kcal,au: -6.183999487716  -0.009854829423 
 E6   /kcal   :  -3.934312325 
 E8   /kcal   :  -2.249687162 
 % E8         :  36.379161524 

-------------------------   ----------------
Dispersion correction           -0.009854829
-------------------------   ----------------


-------------------------   --------------------
FINAL SINGLE POINT ENERGY      -344.364161733981
-------------------------   --------------------

------------------------------------------------------------------------------
                         ORCA SCF GRADIENT CALCULATION
------------------------------------------------------------------------------

 ... reading COSX grid (gridx3)
Gradient of the Kohn-Sham DFT energy:
Kohn-Sham wavefunction type      ... UKS
Hartree-Fock exchange scaling    ...    0.250
Number of operators              ...    2
Number of atoms                  ...   14
Basis set dimensions             ...  133
Integral neglect threshold       ... 2.5e-11
Integral primitive cutoff        ... 2.5e-12
SHARK Integral package           ... ON

Nuc. rep. gradient       (SHARK) ... done (  0.0 sec)
HCore & Overlap gradient (SHARK) ... done (  0.1 sec)
RI-J gradient            (SHARK) ... done (  0.6 sec)
COSX-gradient                    ... done (  6.8 sec)
Exchange-correlation gradient    ... done
Dispersion correction            ... done

------------------
CARTESIAN GRADIENT
------------------

   1   O   :    0.030314160   -0.004111149   -0.011543490
   2   O   :    0.013136852   -0.004089490   -0.020189721
   3   C   :    0.000850547   -0.003585783    0.000015146
   4   C   :    0.001014880   -0.002173538    0.002360634
   5   C   :   -0.000966504    0.001381867   -0.002705646
   6   C   :   -0.044726805    0.007306390    0.034044250
   7   C   :   -0.000308987    0.002601049   -0.001036774
   8   H   :   -0.000818664    0.002467256   -0.000286690
   9   H   :    0.000125552    0.001616910   -0.000373095
  10   H   :    0.000469419   -0.000637624    0.000441947
  11   H   :    0.000125920    0.000007467   -0.000631809
  12   H   :   -0.000014190   -0.000146350   -0.000072526
  13   H   :    0.000496191   -0.000621223   -0.000348220
  14   H   :    0.000229222    0.000007556    0.000111257

Difference to translation invariance:
           :   -0.0000724072    0.0000233373   -0.0002147373

Difference to rotation invariance:
           :   -0.0000261818   -0.0004075233   -0.0002446140

Norm of the cartesian gradient     ...    0.0702396545
RMS gradient                       ...    0.0108382140
MAX gradient                       ...    0.0447268047

-------
TIMINGS
-------

Total SCF gradient time            ...       11.710 sec

One electron gradient       ....       0.099 sec  (  0.8%)
RI-J Coulomb gradient       ....       0.613 sec  (  5.2%)
COSX gradient               ....       6.850 sec  ( 58.5%)
XC gradient                 ....       3.834 sec  ( 32.7%)

Maximum memory used throughout the entire SCFGRAD-calculation: 50.4 MB

                            ***************************************
                            *     ORCA property calculations      *
                            ***************************************

                                    ---------------------
                                    Active property flags
                                    ---------------------
   (+) Dipole Moment


------------------------------------------------------------------------------
                       ORCA ELECTRIC PROPERTIES CALCULATION
------------------------------------------------------------------------------

Dipole Moment Calculation                       ... on
Quadrupole Moment Calculation                   ... off
Polarizability Calculation                      ... off
GBWName                                         ... 14_0_orca.gbw
Electron density                                ... 14_0_orca.scfp
The origin for moment calculation is the CENTER OF MASS  = (-0.336094, -0.086838  0.386721)

-------------
DIPOLE MOMENT
-------------
                                X             Y             Z
Electronic contribution:     -0.84418       0.19947       1.77782
Nuclear contribution   :      1.63439       0.51192      -2.21422
                        -----------------------------------------
Total Dipole Moment    :      0.79021       0.71140      -0.43640
                        -----------------------------------------
Magnitude (a.u.)       :      1.14933
Magnitude (Debye)      :      2.92137



--------------------
Rotational spectrum 
--------------------
 
Rotational constants in cm-1:     0.195222     0.072814     0.061653 
Rotational constants in MHz :  5852.610362  2182.912544  1848.301343 

 Dipole components along the rotational axes: 
x,y,z [a.u.] :     0.875449     0.404298     0.625378 
x,y,z [Debye]:     2.225215     1.027644     1.589585 

 

Timings for individual modules:

Sum of individual times         ...       68.281 sec (=   1.138 min)
GTO integral calculation        ...        0.160 sec (=   0.003 min)   0.2 %
SCF iterations                  ...       56.381 sec (=   0.940 min)  82.6 %
SCF Gradient evaluation         ...       11.739 sec (=   0.196 min)  17.2 %
                             ****ORCA TERMINATED NORMALLY****
TOTAL RUN TIME: 0 days 0 hours 1 minutes 8 seconds 438 msec
