
                                 *****************
                                 * O   R   C   A *
                                 *****************

                                            #,                                       
                                            ###                                      
                                            ####                                     
                                            #####                                    
                                            ######                                   
                                           ########,                                 
                                     ,,################,,,,,                         
                               ,,#################################,,                 
                          ,,##########################################,,             
                       ,#########################################, ''#####,          
                    ,#############################################,,   '####,        
                  ,##################################################,,,,####,       
                ,###########''''           ''''###############################       
              ,#####''   ,,,,##########,,,,          '''####'''          '####       
            ,##' ,,,,###########################,,,                        '##       
           ' ,,###''''                  '''############,,,                           
         ,,##''                                '''############,,,,        ,,,,,,###''
      ,#''                                            '''#######################'''  
     '                                                          ''''####''''         
             ,#######,   #######,   ,#######,      ##                                
            ,#'     '#,  ##    ##  ,#'     '#,    #''#        ######   ,####,        
            ##       ##  ##   ,#'  ##            #'  '#       #        #'  '#        
            ##       ##  #######   ##           ,######,      #####,   #    #        
            '#,     ,#'  ##    ##  '#,     ,#' ,#      #,         ##   #,  ,#        
             '#######'   ##     ##  '#######'  #'      '#     #####' # '####'        



                  #######################################################
                  #                        -***-                        #
                  #          Department of theory and spectroscopy      #
                  #    Directorship and core code : Frank Neese         #
                  #        Max Planck Institute fuer Kohlenforschung    #
                  #                Kaiser Wilhelm Platz 1               #
                  #                 D-45470 Muelheim/Ruhr               #
                  #                      Germany                        #
                  #                                                     #
                  #                  All rights reserved                #
                  #                        -***-                        #
                  #######################################################


                         Program Version 5.0.4 -  RELEASE  -


 With contributions from (in alphabetic order):
   Daniel Aravena         : Magnetic Suceptibility
   Michael Atanasov       : Ab Initio Ligand Field Theory (pilot matlab implementation)
   Alexander A. Auer      : GIAO ZORA, VPT2 properties, NMR spectrum
   Ute Becker             : Parallelization
   Giovanni Bistoni       : ED, misc. LED, open-shell LED, HFLD
   Martin Brehm           : Molecular dynamics
   Dmytro Bykov           : SCF Hessian
   Vijay G. Chilkuri      : MRCI spin determinant printing, contributions to CSF-ICE
   Dipayan Datta          : RHF DLPNO-CCSD density
   Achintya Kumar Dutta   : EOM-CC, STEOM-CC
   Dmitry Ganyushin       : Spin-Orbit,Spin-Spin,Magnetic field MRCI
   Miquel Garcia          : C-PCM and meta-GGA Hessian, CC/C-PCM, Gaussian charge scheme
   Yang Guo               : DLPNO-NEVPT2, F12-NEVPT2, CIM, IAO-localization
   Andreas Hansen         : Spin unrestricted coupled pair/coupled cluster methods
   Benjamin Helmich-Paris : MC-RPA, TRAH-SCF, COSX integrals
   Lee Huntington         : MR-EOM, pCC
   Robert Izsak           : Overlap fitted RIJCOSX, COSX-SCS-MP3, EOM
   Marcus Kettner         : VPT2
   Christian Kollmar      : KDIIS, OOCD, Brueckner-CCSD(T), CCSD density, CASPT2, CASPT2-K
   Simone Kossmann        : Meta GGA functionals, TD-DFT gradient, OOMP2, MP2 Hessian
   Martin Krupicka        : Initial AUTO-CI
   Lucas Lang             : DCDCAS
   Marvin Lechner         : AUTO-CI (C++ implementation), FIC-MRCC
   Dagmar Lenk            : GEPOL surface, SMD
   Dimitrios Liakos       : Extrapolation schemes; Compound Job, initial MDCI parallelization
   Dimitrios Manganas     : Further ROCIS development; embedding schemes
   Dimitrios Pantazis     : SARC Basis sets
   Anastasios Papadopoulos: AUTO-CI, single reference methods and gradients
   Taras Petrenko         : DFT Hessian,TD-DFT gradient, ASA, ECA, R-Raman, ABS, FL, XAS/XES, NRVS
   Peter Pinski           : DLPNO-MP2, DLPNO-MP2 Gradient
   Christoph Reimann      : Effective Core Potentials
   Marius Retegan         : Local ZFS, SOC
   Christoph Riplinger    : Optimizer, TS searches, QM/MM, DLPNO-CCSD(T), (RO)-DLPNO pert. Triples
   Tobias Risthaus        : Range-separated hybrids, TD-DFT gradient, RPA, STAB
   Michael Roemelt        : Original ROCIS implementation
   Masaaki Saitow         : Open-shell DLPNO-CCSD energy and density
   Barbara Sandhoefer     : DKH picture change effects
   Avijit Sen             : IP-ROCIS
   Kantharuban Sivalingam : CASSCF convergence, NEVPT2, FIC-MRCI
   Bernardo de Souza      : ESD, SOC TD-DFT
   Georgi Stoychev        : AutoAux, RI-MP2 NMR, DLPNO-MP2 response
   Willem Van den Heuvel  : Paramagnetic NMR
   Boris Wezisla          : Elementary symmetry handling
   Frank Wennmohs         : Technical directorship


 We gratefully acknowledge several colleagues who have allowed us to
 interface, adapt or use parts of their codes:
   Stefan Grimme, W. Hujo, H. Kruse, P. Pracht,  : VdW corrections, initial TS optimization,
                  C. Bannwarth, S. Ehlert          DFT functionals, gCP, sTDA/sTD-DF
   Ed Valeev, F. Pavosevic, A. Kumar             : LibInt (2-el integral package), F12 methods
   Garnet Chan, S. Sharma, J. Yang, R. Olivares  : DMRG
   Ulf Ekstrom                                   : XCFun DFT Library
   Mihaly Kallay                                 : mrcc  (arbitrary order and MRCC methods)
   Jiri Pittner, Ondrej Demel                    : Mk-CCSD
   Frank Weinhold                                : gennbo (NPA and NBO analysis)
   Christopher J. Cramer and Donald G. Truhlar   : smd solvation model
   Lars Goerigk                                  : TD-DFT with DH, B97 family of functionals
   V. Asgeirsson, H. Jonsson                     : NEB implementation
   FAccTs GmbH                                   : IRC, NEB, NEB-TS, DLPNO-Multilevel, CI-OPT
                                                   MM, QMMM, 2- and 3-layer-ONIOM, Crystal-QMMM,
                                                   LR-CPCM, SF, NACMEs, symmetry and pop. for TD-DFT,
                                                   nearIR, NL-DFT gradient (VV10), updates on ESD,
                                                   ML-optimized integration grids
   S Lehtola, MJT Oliveira, MAL Marques          : LibXC Library
   Liviu Ungur et al                             : ANISO software


 Your calculation uses the libint2 library for the computation of 2-el integrals
 For citations please refer to: http://libint.valeyev.net

 Your ORCA version has been built with support for libXC version: 5.1.0
 For citations please refer to: https://tddft.org/programs/libxc/

 This ORCA versions uses:
   CBLAS   interface :  Fast vector & matrix operations
   LAPACKE interface :  Fast linear algebra routines
   SCALAPACK package :  Parallel linear algebra routines
   Shared memory     :  Shared parallel matrices
   BLAS/LAPACK       :  OpenBLAS 0.3.15  USE64BITINT DYNAMIC_ARCH NO_AFFINITY SkylakeX SINGLE_THREADED
        Core in use  :  SkylakeX
   Copyright (c) 2011-2014, The OpenBLAS Project


Your calculation utilizes the atom-pairwise dispersion correction
with the Becke-Johnson damping scheme (D3BJ)
Cite in your paper:
S.Grimme, S.Ehrlich, L.Goerigk, J Comput Chem, (2011), 32, 1456–1465 
S.Grimme, J.Antony, S.Ehrlich and H.Krieg, J.Chem.Phys., 132, (2010), 154104 
   

================================================================================

----- Orbital basis set information -----
Your calculation utilizes the basis: def2-SVP
   F. Weigend and R. Ahlrichs, Phys. Chem. Chem. Phys. 7, 3297 (2005).

----- AuxJ basis set information -----
Your calculation utilizes the auxiliary basis: def2/J
   F. Weigend, Phys. Chem. Chem. Phys. 8, 1057 (2006).

================================================================================
                                        WARNINGS
                       Please study these warnings very carefully!
================================================================================


WARNING: your system is open-shell and RHF/RKS was chosen
  ===> : WILL SWITCH to UHF/UKS


INFO   : the flag for use of the SHARK integral package has been found!

================================================================================
                                       INPUT FILE
================================================================================
NAME = 14_1_orca.inp
|  1> ! EnGrad PBE0 RIJCOSX D3BJ def2-SVP def2/J 
|  2> %output 
|  3> xyzfile=True 
|  4> end 
|  5> %scf 
|  6> maxiter 250 
|  7> end
|  8> %output
|  9> Print[P_Hirshfeld] = 1
| 10> end
| 11> % maxcore
| 12> 4000
| 13> *xyz 0 2
| 14> O   -2.45916557  -0.20832121   1.62162908 
| 15> O   -0.58734450  -0.28118484   0.90187847 
| 16> C   -0.74066372   0.22488833  -0.43765529 
| 17> C    0.14930316   0.90937972   0.52473726 
| 18> C    1.52400396   0.42744052   0.28358156 
| 19> C    1.48314234  -0.63862024  -0.61882436 
| 20> C    0.09698729  -0.66081665  -1.31426313 
| 21> H   -2.10126490   0.38109838   2.29743637 
| 22> H   -1.74300173   0.57681061  -0.66907728 
| 23> H   -0.13490557   1.80345001   1.08267717 
| 24> H    2.41640057   0.70990021   0.83219298 
| 25> H    2.18352345  -1.30941440  -0.77041067 
| 26> H    0.25920835  -0.27420043  -2.33928600 
| 27> H   -0.34603618  -1.66037497  -1.39406641 
| 28> *
| 29> 
| 30>                          ****END OF INPUT****
================================================================================

                     *******************************
                     * Energy+Gradient Calculation *
                     *******************************

---------------------------------
CARTESIAN COORDINATES (ANGSTROEM)
---------------------------------
  O     -2.459166   -0.208321    1.621629
  O     -0.587345   -0.281185    0.901878
  C     -0.740664    0.224888   -0.437655
  C      0.149303    0.909380    0.524737
  C      1.524004    0.427441    0.283582
  C      1.483142   -0.638620   -0.618824
  C      0.096987   -0.660817   -1.314263
  H     -2.101265    0.381098    2.297436
  H     -1.743002    0.576811   -0.669077
  H     -0.134906    1.803450    1.082677
  H      2.416401    0.709900    0.832193
  H      2.183523   -1.309414   -0.770411
  H      0.259208   -0.274200   -2.339286
  H     -0.346036   -1.660375   -1.394066

----------------------------
CARTESIAN COORDINATES (A.U.)
----------------------------
  NO LB      ZA    FRAG     MASS         X           Y           Z
   0 O     8.0000    0    15.999   -4.647149   -0.393670    3.064435
   1 O     8.0000    0    15.999   -1.109920   -0.531362    1.704303
   2 C     6.0000    0    12.011   -1.399652    0.424977   -0.827049
   3 C     6.0000    0    12.011    0.282142    1.718479    0.991610
   4 C     6.0000    0    12.011    2.879950    0.807746    0.535891
   5 C     6.0000    0    12.011    2.802733   -1.206817   -1.169409
   6 C     6.0000    0    12.011    0.183279   -1.248762   -2.483597
   7 H     1.0000    0     1.008   -3.970815    0.720172    4.341526
   8 H     1.0000    0     1.008   -3.293796    1.090014   -1.264373
   9 H     1.0000    0     1.008   -0.254935    3.408027    2.045963
  10 H     1.0000    0     1.008    4.566335    1.341517    1.572617
  11 H     1.0000    0     1.008    4.126261   -2.474435   -1.455865
  12 H     1.0000    0     1.008    0.489833   -0.518164   -4.420610
  13 H     1.0000    0     1.008   -0.653914   -3.137654   -2.634404

--------------------------------
INTERNAL COORDINATES (ANGSTROEM)
--------------------------------
 O      0   0   0     0.000000000000     0.00000000     0.00000000
 O      1   0   0     2.006754635542     0.00000000     0.00000000
 C      2   1   0     1.440127609205   102.79996805     0.00000000
 C      2   1   3     1.449941115629   122.50475299    64.24532870
 C      4   2   1     1.476558076629   104.32857152   170.47848352
 C      5   4   2     1.397315877120   109.10301012    52.73785276
 C      3   2   1     1.501523836408   106.04278250   222.59183035
 H      1   2   3     0.965517392841    85.83964477   239.60644957
 H      3   2   1     1.087238205228   114.19726653     4.96058192
 H      4   2   1     1.091527933147   114.03734830    28.81713586
 H      5   4   2     1.084956071078   126.74253567   243.03311269
 H      6   5   4     0.981568598578   126.88787185   198.63506652
 H      7   3   2     1.107456390969   114.59158990   192.55388916
 H      7   3   2     1.096245954862   110.78699969    69.96936721

---------------------------
INTERNAL COORDINATES (A.U.)
---------------------------
 O      0   0   0     0.000000000000     0.00000000     0.00000000
 O      1   0   0     3.792216679151     0.00000000     0.00000000
 C      2   1   0     2.721446779297   102.79996805     0.00000000
 C      2   1   3     2.739991618851   122.50475299    64.24532870
 C      4   2   1     2.790290385659   104.32857152   170.47848352
 C      5   4   2     2.640544330337   109.10301012    52.73785276
 C      3   2   1     2.837468834365   106.04278250   222.59183035
 H      1   2   3     1.824563450008    85.83964477   239.60644957
 H      3   2   1     2.054582450216   114.19726653     4.96058192
 H      4   2   1     2.062688861173   114.03734830    28.81713586
 H      5   4   2     2.050269841672   126.74253567   243.03311269
 H      6   5   4     1.854895832969   126.88787185   198.63506652
 H      7   3   2     2.092789284192   114.59158990   192.55388916
 H      7   3   2     2.071604630108   110.78699969    69.96936721

---------------------
BASIS SET INFORMATION
---------------------
There are 3 groups of distinct atoms

 Group   1 Type O   : 7s4p1d contracted to 3s2p1d pattern {511/31/1}
 Group   2 Type C   : 7s4p1d contracted to 3s2p1d pattern {511/31/1}
 Group   3 Type H   : 4s1p contracted to 2s1p pattern {31/1}

Atom   0O    basis set group =>   1
Atom   1O    basis set group =>   1
Atom   2C    basis set group =>   2
Atom   3C    basis set group =>   2
Atom   4C    basis set group =>   2
Atom   5C    basis set group =>   2
Atom   6C    basis set group =>   2
Atom   7H    basis set group =>   3
Atom   8H    basis set group =>   3
Atom   9H    basis set group =>   3
Atom  10H    basis set group =>   3
Atom  11H    basis set group =>   3
Atom  12H    basis set group =>   3
Atom  13H    basis set group =>   3
---------------------------------
AUXILIARY/J BASIS SET INFORMATION
---------------------------------
There are 3 groups of distinct atoms

 Group   1 Type O   : 12s5p4d2f1g contracted to 6s4p3d1f1g pattern {711111/2111/211/2/1}
 Group   2 Type C   : 12s5p4d2f1g contracted to 6s4p3d1f1g pattern {711111/2111/211/2/1}
 Group   3 Type H   : 5s2p1d contracted to 3s1p1d pattern {311/2/1}

Atom   0O    basis set group =>   1
Atom   1O    basis set group =>   1
Atom   2C    basis set group =>   2
Atom   3C    basis set group =>   2
Atom   4C    basis set group =>   2
Atom   5C    basis set group =>   2
Atom   6C    basis set group =>   2
Atom   7H    basis set group =>   3
Atom   8H    basis set group =>   3
Atom   9H    basis set group =>   3
Atom  10H    basis set group =>   3
Atom  11H    basis set group =>   3
Atom  12H    basis set group =>   3
Atom  13H    basis set group =>   3
------------------------------------------------------------------------------
                           ORCA GTO INTEGRAL CALCULATION
                           -- RI-GTO INTEGRALS CHOSEN --
------------------------------------------------------------------------------
------------------------------------------------------------------------------
                   ___                                                        
                  /   \      - P O W E R E D   B Y -                         
                 /     \                                                     
                 |  |  |   _    _      __       _____    __    __             
                 |  |  |  | |  | |    /  \     |  _  \  |  |  /  |          
                  \  \/   | |  | |   /    \    | | | |  |  | /  /          
                 / \  \   | |__| |  /  /\  \   | |_| |  |  |/  /          
                |  |  |   |  __  | /  /__\  \  |    /   |      \           
                |  |  |   | |  | | |   __   |  |    \   |  |\   \          
                \     /   | |  | | |  |  |  |  | |\  \  |  | \   \       
                 \___/    |_|  |_| |__|  |__|  |_| \__\ |__|  \__/        
                                                                              
                      - O R C A' S   B I G   F R I E N D -                    
                                      &                                       
                       - I N T E G R A L  F E E D E R -                       
                                                                              
 v1 FN, 2020, v2 2021                                                         
------------------------------------------------------------------------------


Reading SHARK input file 14_1_orca.SHARKINP.tmp ... ok
----------------------
SHARK INTEGRAL PACKAGE
----------------------

Number of atoms                             ...     14
Number of basis functions                   ...    133
Number of shells                            ...     63
Maximum angular momentum                    ...      2
Integral batch strategy                     ... SHARK/LIBINT Hybrid
RI-J (if used) integral strategy            ... SPLIT-RIJ (Revised 2003 algorithm where possible)
Printlevel                                  ...      1
Contraction scheme used                     ... SEGMENTED contraction
Coulomb Range Separation                    ... NOT USED
Exchange Range Separation                   ... NOT USED
Finite Nucleus Model                        ... NOT USED
Auxiliary Coulomb fitting basis             ... AVAILABLE
   # of basis functions in Aux-J            ...    420
   # of shells in Aux-J                     ...    140
   Maximum angular momentum in Aux-J        ...      4
Auxiliary J/K fitting basis                 ... NOT available
Auxiliary Correlation fitting basis         ... NOT available
Auxiliary 'external' fitting basis          ... NOT available
Integral threshold                          ...     2.500000e-11
Primitive cut-off                           ...     2.500000e-12
Primitive pair pre-selection threshold      ...     2.500000e-12

Calculating pre-screening integrals         ... done (  0.0 sec) Dimension = 63
Organizing shell pair data                  ... done (  0.0 sec)
Shell pair information
Total number of shell pairs                 ...      2016
Shell pairs after pre-screening             ...      1947
Total number of primitive shell pairs       ...      7252
Primitive shell pairs kept                  ...      5338
          la=0 lb=0:    606 shell pairs
          la=1 lb=0:    711 shell pairs
          la=1 lb=1:    225 shell pairs
          la=2 lb=0:    236 shell pairs
          la=2 lb=1:    142 shell pairs
          la=2 lb=2:     27 shell pairs

Calculating one electron integrals          ... done (  0.0 sec)
Calculating RI/J V-Matrix + Cholesky decomp.... done (  0.0 sec)
Calculating Nuclear repulsion               ... done (  0.0 sec) ENN=    299.995546983756 Eh

SHARK setup successfully completed in   0.1 seconds

Maximum memory used throughout the entire GTOINT-calculation: 16.8 MB
-------------------------------------------------------------------------------
                                 ORCA SCF
-------------------------------------------------------------------------------

------------
SCF SETTINGS
------------
Hamiltonian:
 Density Functional     Method          .... DFT(GTOs)
 Exchange Functional    Exchange        .... PBE
   PBE kappa parameter   XKappa         ....  0.804000
   PBE mue parameter    XMuePBE         ....  0.219520
 Correlation Functional Correlation     .... PBE
   PBE beta parameter  CBetaPBE         ....  0.066725
 LDA part of GGA corr.  LDAOpt          .... PW91-LDA
 Gradients option       PostSCFGGA      .... off
 Hybrid DFT is turned on
   Fraction HF Exchange ScalHFX         ....  0.250000
   Scaling of DF-GGA-X  ScalDFX         ....  0.750000
   Scaling of DF-GGA-C  ScalDFC         ....  1.000000
   Scaling of DF-LDA-C  ScalLDAC        ....  1.000000
   Perturbative correction              ....  0.000000
   Density functional embedding theory  .... OFF
   NL short-range parameter             ....  6.900000
 RI-approximation to the Coulomb term is turned on
   Number of AuxJ basis functions       .... 420
   RIJ-COSX (HFX calculated with COS-X)).... on


General Settings:
 Integral files         IntName         .... 14_1_orca
 Hartree-Fock type      HFTyp           .... UHF
 Total Charge           Charge          ....    0
 Multiplicity           Mult            ....    2
 Number of Electrons    NEL             ....   53
 Basis Dimension        Dim             ....  133
 Nuclear Repulsion      ENuc            ....    299.9955469838 Eh

Convergence Acceleration:
 DIIS                   CNVDIIS         .... on
   Start iteration      DIISMaxIt       ....    12
   Startup error        DIISStart       ....  0.200000
   # of expansion vecs  DIISMaxEq       ....     5
   Bias factor          DIISBfac        ....   1.050
   Max. coefficient     DIISMaxC        ....  10.000
 Trust-Rad. Augm. Hess. CNVTRAH         .... auto
   Auto Start mean grad. ratio tolernc. ....  1.125000
   Auto Start start iteration           ....    20
   Auto Start num. interpolation iter.  ....    10
   Max. Number of Micro iterations      ....    16
   Max. Number of Macro iterations      .... Maxiter - #DIIS iter
   Number of Davidson start vectors     ....     2
   Converg. threshold I  (grad. norm)   ....   1.000e-05
   Converg. threshold II (energy diff.) ....   1.000e-08
   Grad. Scal. Fac. for Micro threshold ....   0.100
   Minimum threshold for Micro iter.    ....   0.010
   NR start threshold (gradient norm)   ....   0.001
   Initial trust radius                 ....   0.400
   Minimum AH scaling param. (alpha)    ....   1.000
   Maximum AH scaling param. (alpha)    .... 1000.000
   Orbital update algorithm             .... Taylor
   White noise on init. David. guess    .... on
   Maximum white noise                  ....   0.010
   Quad. conv. algorithm                .... NR
 SOSCF                  CNVSOSCF        .... off
 Level Shifting         CNVShift        .... on
   Level shift para.    LevelShift      ....    0.2500
   Turn off err/grad.   ShiftErr        ....    0.0010
 Zerner damping         CNVZerner       .... off
 Static damping         CNVDamp         .... on
   Fraction old density DampFac         ....    0.7000
   Max. Damping (<1)    DampMax         ....    0.9800
   Min. Damping (>=0)   DampMin         ....    0.0000
   Turn off err/grad.   DampErr         ....    0.1000
 Fernandez-Rico         CNVRico         .... off

SCF Procedure:
 Maximum # iterations   MaxIter         ....   250
 SCF integral mode      SCFMode         .... Direct
   Integral package                     .... SHARK and LIBINT hybrid scheme
 Reset frequency        DirectResetFreq ....    20
 Integral Threshold     Thresh          ....  2.500e-11 Eh
 Primitive CutOff       TCut            ....  2.500e-12 Eh

Convergence Tolerance:
 Convergence Check Mode ConvCheckMode   .... Total+1el-Energy
 Convergence forced     ConvForced      .... 0
 Energy Change          TolE            ....  1.000e-08 Eh
 1-El. energy change                    ....  1.000e-05 Eh
 DIIS Error             TolErr          ....  5.000e-07


Diagonalization of the overlap matrix:
Smallest eigenvalue                        ... 7.898e-04
Time for diagonalization                   ...    0.003 sec
Threshold for overlap eigenvalues          ... 1.000e-08
Number of eigenvalues below threshold      ... 0
Time for construction of square roots      ...    0.001 sec
Total time needed                          ...    0.004 sec

Time for model grid setup =    0.117 sec

------------------------------
INITIAL GUESS: MODEL POTENTIAL
------------------------------
Loading Hartree-Fock densities                     ... done
Calculating cut-offs                               ... done
Initializing the effective Hamiltonian             ... done
Setting up the integral package (SHARK)            ... done
Starting the Coulomb interaction                   ... done (   0.1 sec)
Reading the grid                                   ... done
Mapping shells                                     ... done
Starting the XC term evaluation                    ... done (   0.1 sec)
  promolecular density results
     # of electrons  =     52.998147565
     EX              =    -43.874582711
     EC              =     -1.755050912
     EX+EC           =    -45.629633623
Transforming the Hamiltonian                       ... done (   0.0 sec)
Diagonalizing the Hamiltonian                      ... done (   0.0 sec)
Back transforming the eigenvectors                 ... done (   0.0 sec)
Now organizing SCF variables                       ... done
                      ------------------
                      INITIAL GUESS DONE (   0.3 sec)
                      ------------------
-------------------
DFT GRID GENERATION
-------------------

General Integration Accuracy     IntAcc      ... 4.388
Radial Grid Type                 RadialGrid  ... OptM3 with GC (2021)
Angular Grid (max. ang.)         AngularGrid ... 4 (Lebedev-302)
Angular grid pruning method      GridPruning ... 4 (adaptive)
Weight generation scheme         WeightScheme... Becke
Basis function cutoff            BFCut       ... 1.0000e-11
Integration weight cutoff        WCut        ... 1.0000e-14
Angular grids for H and He will be reduced by one unit
Partially contracted basis set               ... off
Rotationally invariant grid construction     ... off

Total number of grid points                  ...    64864
Total number of batches                      ...     1019
Average number of points per batch           ...       63
Average number of grid points per atom       ...     4633
Time for grid setup =    0.479 sec

--------------------
COSX GRID GENERATION
--------------------

GRIDX 1
-------
General Integration Accuracy     IntAcc      ... 3.816
Radial Grid Type                 RadialGrid  ... OptM3 with GC (2021)
Angular Grid (max. ang.)         AngularGrid ... 1 (Lebedev-50)
Angular grid pruning method      GridPruning ... 4 (adaptive)
Weight generation scheme         WeightScheme... Becke
Basis function cutoff            BFCut       ... 1.0000e-11
Integration weight cutoff        WCut        ... 1.0000e-14
Angular grids for H and He will be reduced by one unit
Partially contracted basis set               ... on
Rotationally invariant grid construction     ... off

Total number of grid points                  ...     8298
Total number of batches                      ...      136
Average number of points per batch           ...       61
Average number of grid points per atom       ...      593
UseSFitting                                  ... on

GRIDX 2
-------
General Integration Accuracy     IntAcc      ... 4.020
Radial Grid Type                 RadialGrid  ... OptM3 with GC (2021)
Angular Grid (max. ang.)         AngularGrid ... 2 (Lebedev-110)
Angular grid pruning method      GridPruning ... 4 (adaptive)
Weight generation scheme         WeightScheme... Becke
Basis function cutoff            BFCut       ... 1.0000e-11
Integration weight cutoff        WCut        ... 1.0000e-14
Angular grids for H and He will be reduced by one unit
Partially contracted basis set               ... on
Rotationally invariant grid construction     ... off

Total number of grid points                  ...    18051
Total number of batches                      ...      289
Average number of points per batch           ...       62
Average number of grid points per atom       ...     1289
UseSFitting                                  ... on

GRIDX 3
-------
General Integration Accuracy     IntAcc      ... 4.338
Radial Grid Type                 RadialGrid  ... OptM3 with GC (2021)
Angular Grid (max. ang.)         AngularGrid ... 3 (Lebedev-194)
Angular grid pruning method      GridPruning ... 4 (adaptive)
Weight generation scheme         WeightScheme... Becke
Basis function cutoff            BFCut       ... 1.0000e-11
Integration weight cutoff        WCut        ... 1.0000e-14
Angular grids for H and He will be reduced by one unit
Partially contracted basis set               ... on
Rotationally invariant grid construction     ... off

Total number of grid points                  ...    39653
Total number of batches                      ...      627
Average number of points per batch           ...       63
Average number of grid points per atom       ...     2832
UseSFitting                                  ... on

Time for X-Grid setup             =    0.534 sec

--------------
SCF ITERATIONS
--------------
ITER       Energy         Delta-E        Max-DP      RMS-DP      [F,P]     Damp
               ***  Starting incremental Fock matrix formation  ***
  0   -344.1390409414   0.000000000000 0.05651116  0.00150459  0.1609826 0.7000
  1   -344.2316880101  -0.092647068749 0.04223449  0.00100614  0.0599072 0.7000
                               ***Turning on DIIS***
  2   -344.2689395902  -0.037251580043 0.08723122  0.00166972  0.0217448 0.0000
  3   -344.3352661298  -0.066326539601 0.03033703  0.00089332  0.0547396 0.0000
  4   -344.3496674321  -0.014401302320 0.00976112  0.00035690  0.0102614 0.0000
  5   -344.3510804489  -0.001413016781 0.00637948  0.00021628  0.0072644 0.0000
  6   -344.3517378120  -0.000657363175 0.00468102  0.00011801  0.0042325 0.0000
  7   -344.3519606481  -0.000222836036 0.00173564  0.00005667  0.0020361 0.0000
  8   -344.3520324664  -0.000071818316 0.00153845  0.00003689  0.0013093 0.0000
  9   -344.3520609417  -0.000028475345 0.00150684  0.00004697  0.0006205 0.0000
               *** Restarting incremental Fock matrix formation ***
                                   *** Resetting DIIS ***
 10   -344.3520696268  -0.000008685064 0.00057103  0.00001312  0.0002496 0.0000
 11   -344.3520711369  -0.000001510143 0.00023788  0.00000625  0.0003323 0.0000
 12   -344.3520722277  -0.000001090754 0.00055343  0.00000916  0.0001823 0.0000
 13   -344.3520734440  -0.000001216273 0.00063139  0.00001028  0.0001310 0.0000
 14   -344.3520743772  -0.000000933269 0.00063403  0.00001026  0.0000760 0.0000
 15   -344.3520748106  -0.000000433317 0.00012194  0.00000208  0.0000271 0.0000
 16   -344.3520748419  -0.000000031289 0.00007906  0.00000136  0.0000170 0.0000
 17   -344.3520748453  -0.000000003446 0.00001554  0.00000035  0.0000118 0.0000
                 **** Energy Check signals convergence ****

               *****************************************************
               *                     SUCCESS                       *
               *           SCF CONVERGED AFTER  18 CYCLES          *
               *****************************************************

Old exchange energy                            =    -11.185469741 Eh
New exchange energy                            =    -11.185453732 Eh
Exchange energy change after final integration =      0.000016010 Eh
Total energy after final integration           =   -344.352058840 Eh
Final COS-X integration done in                =     4.827 sec

----------------
TOTAL SCF ENERGY
----------------

Total Energy       :         -344.35205884 Eh           -9370.29590 eV

Components:
Nuclear Repulsion  :          299.99554698 Eh            8163.29385 eV
Electronic Energy  :         -644.34760582 Eh          -17533.58974 eV
One Electron Energy:        -1063.17560345 Eh          -28930.47897 eV
Two Electron Energy:          418.82799763 Eh           11396.88922 eV
Max COSX asymmetry :            0.00000075 Eh               0.00002 eV

Virial components:
Potential Energy   :         -685.96181537 Eh          -18665.96996 eV
Kinetic Energy     :          341.60975653 Eh            9295.67406 eV
Virial Ratio       :            2.00802759


DFT components:
N(Alpha)           :       27.000007441865 electrons
N(Beta)            :       26.000008005247 electrons
N(Total)           :       53.000015447112 electrons
E(X)               :      -33.482237862127 Eh       
E(C)               :       -1.770679065658 Eh       
E(XC)              :      -35.252916927785 Eh       
DFET-embed. en.    :        0.000000000000 Eh       

---------------
SCF CONVERGENCE
---------------

  Last Energy change         ...   -4.3858e-09  Tolerance :   1.0000e-08
  Last MAX-Density change    ...    0.0000e+00  Tolerance :   1.0000e-07
  Last RMS-Density change    ...    0.0000e+00  Tolerance :   5.0000e-09
  Last DIIS Error            ...    4.4061e-06  Tolerance :   5.0000e-07

             **** THE GBW FILE WAS UPDATED (14_1_orca.gbw) ****
             **** DENSITY 14_1_orca.scfp WAS UPDATED ****
             **** ENERGY FILE WAS UPDATED (14_1_orca.en.tmp) ****
----------------------
UHF SPIN CONTAMINATION
----------------------

Warning: in a DFT calculation there is little theoretical justification to 
         calculate <S**2> as in Hartree-Fock theory. We will do it anyways
         but you should keep in mind that the values have only limited relevance

Expectation value of <S**2>     :     0.753937
Ideal value S*(S+1) for S=0.5   :     0.750000
Deviation                       :     0.003937

             **** THE GBW FILE WAS UPDATED (14_1_orca.gbw) ****
             **** DENSITY 14_1_orca.scfp WAS UPDATED ****
----------------
ORBITAL ENERGIES
----------------
                 SPIN UP ORBITALS
  NO   OCC          E(Eh)            E(eV) 
   0   1.0000     -19.241610      -523.5908 
   1   1.0000     -19.193620      -522.2849 
   2   1.0000     -10.301518      -280.3186 
   3   1.0000     -10.296981      -280.1951 
   4   1.0000     -10.252734      -278.9911 
   5   1.0000     -10.251135      -278.9476 
   6   1.0000     -10.250345      -278.9261 
   7   1.0000      -1.118790       -30.4438 
   8   1.0000      -0.954954       -25.9856 
   9   1.0000      -0.837761       -22.7966 
  10   1.0000      -0.747706       -20.3461 
  11   1.0000      -0.693864       -18.8810 
  12   1.0000      -0.605249       -16.4697 
  13   1.0000      -0.588435       -16.0121 
  14   1.0000      -0.563772       -15.3410 
  15   1.0000      -0.481630       -13.1058 
  16   1.0000      -0.468247       -12.7416 
  17   1.0000      -0.443284       -12.0624 
  18   1.0000      -0.426690       -11.6108 
  19   1.0000      -0.420055       -11.4303 
  20   1.0000      -0.405433       -11.0324 
  21   1.0000      -0.377133       -10.2623 
  22   1.0000      -0.367143        -9.9905 
  23   1.0000      -0.332437        -9.0461 
  24   1.0000      -0.287409        -7.8208 
  25   1.0000      -0.278235        -7.5712 
  26   1.0000      -0.243329        -6.6213 
  27   0.0000      -0.020907        -0.5689 
  28   0.0000       0.070867         1.9284 
  29   0.0000       0.095803         2.6069 
  30   0.0000       0.101846         2.7714 
  31   0.0000       0.112127         3.0511 
  32   0.0000       0.128761         3.5038 
  33   0.0000       0.140910         3.8344 
  34   0.0000       0.145727         3.9654 
  35   0.0000       0.147152         4.0042 
  36   0.0000       0.169832         4.6214 
  37   0.0000       0.187804         5.1104 
  38   0.0000       0.208312         5.6685 
  39   0.0000       0.294375         8.0104 
  40   0.0000       0.315685         8.5902 
  41   0.0000       0.375307        10.2126 
  42   0.0000       0.400235        10.8909 
  43   0.0000       0.457093        12.4381 
  44   0.0000       0.471913        12.8414 
  45   0.0000       0.479798        13.0560 
  46   0.0000       0.504603        13.7310 
  47   0.0000       0.520269        14.1573 
  48   0.0000       0.547038        14.8857 
  49   0.0000       0.559568        15.2266 
  50   0.0000       0.563495        15.3335 
  51   0.0000       0.594004        16.1637 
  52   0.0000       0.612214        16.6592 
  53   0.0000       0.637394        17.3444 
  54   0.0000       0.654462        17.8088 
  55   0.0000       0.659738        17.9524 
  56   0.0000       0.667011        18.1503 
  57   0.0000       0.678601        18.4657 
  58   0.0000       0.683790        18.6069 
  59   0.0000       0.697087        18.9687 
  60   0.0000       0.708068        19.2675 
  61   0.0000       0.736879        20.0515 
  62   0.0000       0.760131        20.6842 
  63   0.0000       0.779878        21.2216 
  64   0.0000       0.795638        21.6504 
  65   0.0000       0.899164        24.4675 
  66   0.0000       0.944372        25.6977 
  67   0.0000       0.977870        26.6092 
  68   0.0000       1.001336        27.2477 
  69   0.0000       1.010539        27.4982 
  70   0.0000       1.061757        28.8919 
  71   0.0000       1.072460        29.1831 
  72   0.0000       1.110066        30.2064 
  73   0.0000       1.127675        30.6856 
  74   0.0000       1.205565        32.8051 
  75   0.0000       1.218858        33.1668 
  76   0.0000       1.283797        34.9339 
  77   0.0000       1.344879        36.5960 
  78   0.0000       1.453143        39.5420 
  79   0.0000       1.502314        40.8801 
  80   0.0000       1.509768        41.0829 
  81   0.0000       1.527660        41.5697 
  82   0.0000       1.537177        41.8287 
  83   0.0000       1.565422        42.5973 
  84   0.0000       1.600172        43.5429 
  85   0.0000       1.625349        44.2280 
  86   0.0000       1.659974        45.1702 
  87   0.0000       1.682941        45.7951 
  88   0.0000       1.708485        46.4902 
  89   0.0000       1.758190        47.8428 
  90   0.0000       1.768186        48.1148 
  91   0.0000       1.789913        48.7060 
  92   0.0000       1.812936        49.3325 
  93   0.0000       1.847285        50.2672 
  94   0.0000       1.867782        50.8249 
  95   0.0000       1.884177        51.2711 
  96   0.0000       1.941154        52.8215 
  97   0.0000       1.955733        53.2182 
  98   0.0000       2.005964        54.5851 
  99   0.0000       2.027498        55.1710 
 100   0.0000       2.051828        55.8331 
 101   0.0000       2.078211        56.5510 
 102   0.0000       2.117545        57.6213 
 103   0.0000       2.170633        59.0659 
 104   0.0000       2.187270        59.5186 
 105   0.0000       2.223440        60.5029 
 106   0.0000       2.246668        61.1349 
 107   0.0000       2.270088        61.7722 
 108   0.0000       2.298861        62.5552 
 109   0.0000       2.372393        64.5561 
 110   0.0000       2.432776        66.1992 
 111   0.0000       2.487595        67.6909 
 112   0.0000       2.545101        69.2557 
 113   0.0000       2.566844        69.8474 
 114   0.0000       2.626295        71.4651 
 115   0.0000       2.689064        73.1732 
 116   0.0000       2.728201        74.2381 
 117   0.0000       2.742239        74.6201 
 118   0.0000       2.766030        75.2675 
 119   0.0000       2.826809        76.9214 
 120   0.0000       2.835676        77.1627 
 121   0.0000       2.871860        78.1473 
 122   0.0000       2.904770        79.0428 
 123   0.0000       2.953507        80.3690 
 124   0.0000       3.026315        82.3502 
 125   0.0000       3.035567        82.6020 
 126   0.0000       3.079836        83.8066 
 127   0.0000       3.110191        84.6326 
 128   0.0000       3.181349        86.5689 
 129   0.0000       3.337052        90.8058 
 130   0.0000       3.417485        92.9945 
 131   0.0000       3.460428        94.1630 
 132   0.0000       3.765308       102.4592 

                 SPIN DOWN ORBITALS
  NO   OCC          E(Eh)            E(eV) 
   0   1.0000     -19.235343      -523.4203 
   1   1.0000     -19.168931      -521.6131 
   2   1.0000     -10.301394      -280.3152 
   3   1.0000     -10.297208      -280.2013 
   4   1.0000     -10.252732      -278.9910 
   5   1.0000     -10.251373      -278.9540 
   6   1.0000     -10.249702      -278.9086 
   7   1.0000      -1.110530       -30.2190 
   8   1.0000      -0.892580       -24.2883 
   9   1.0000      -0.834017       -22.6948 
  10   1.0000      -0.747630       -20.3440 
  11   1.0000      -0.689962       -18.7748 
  12   1.0000      -0.604280       -16.4433 
  13   1.0000      -0.587414       -15.9843 
  14   1.0000      -0.558961       -15.2101 
  15   1.0000      -0.473522       -12.8852 
  16   1.0000      -0.466498       -12.6940 
  17   1.0000      -0.436225       -11.8703 
  18   1.0000      -0.422037       -11.4842 
  19   1.0000      -0.416320       -11.3286 
  20   1.0000      -0.388072       -10.5600 
  21   1.0000      -0.374724       -10.1967 
  22   1.0000      -0.340562        -9.2672 
  23   1.0000      -0.303942        -8.2707 
  24   1.0000      -0.259438        -7.0597 
  25   1.0000      -0.255289        -6.9468 
  26   0.0000      -0.052694        -1.4339 
  27   0.0000      -0.015616        -0.4249 
  28   0.0000       0.073412         1.9976 
  29   0.0000       0.097166         2.6440 
  30   0.0000       0.103016         2.8032 
  31   0.0000       0.113278         3.0825 
  32   0.0000       0.130637         3.5548 
  33   0.0000       0.141380         3.8471 
  34   0.0000       0.146610         3.9895 
  35   0.0000       0.148261         4.0344 
  36   0.0000       0.174569         4.7503 
  37   0.0000       0.188869         5.1394 
  38   0.0000       0.209520         5.7013 
  39   0.0000       0.294920         8.0252 
  40   0.0000       0.315918         8.5966 
  41   0.0000       0.375532        10.2187 
  42   0.0000       0.400572        10.9001 
  43   0.0000       0.457983        12.4623 
  44   0.0000       0.473002        12.8710 
  45   0.0000       0.480373        13.0716 
  46   0.0000       0.505615        13.7585 
  47   0.0000       0.520747        14.1702 
  48   0.0000       0.549479        14.9521 
  49   0.0000       0.562149        15.2969 
  50   0.0000       0.564632        15.3644 
  51   0.0000       0.594063        16.1653 
  52   0.0000       0.612834        16.6761 
  53   0.0000       0.639202        17.3936 
  54   0.0000       0.655978        17.8501 
  55   0.0000       0.665127        18.0990 
  56   0.0000       0.669965        18.2307 
  57   0.0000       0.680347        18.5132 
  58   0.0000       0.683981        18.6121 
  59   0.0000       0.698088        18.9959 
  60   0.0000       0.708648        19.2833 
  61   0.0000       0.737385        20.0653 
  62   0.0000       0.760811        20.7027 
  63   0.0000       0.780573        21.2405 
  64   0.0000       0.796103        21.6631 
  65   0.0000       0.904256        24.6060 
  66   0.0000       0.955078        25.9890 
  67   0.0000       0.986116        26.8336 
  68   0.0000       1.010421        27.4950 
  69   0.0000       1.033945        28.1351 
  70   0.0000       1.077677        29.3251 
  71   0.0000       1.098550        29.8931 
  72   0.0000       1.119102        30.4523 
  73   0.0000       1.146040        31.1853 
  74   0.0000       1.214998        33.0618 
  75   0.0000       1.220977        33.2245 
  76   0.0000       1.292132        35.1607 
  77   0.0000       1.345638        36.6167 
  78   0.0000       1.453664        39.5562 
  79   0.0000       1.504310        40.9344 
  80   0.0000       1.519991        41.3611 
  81   0.0000       1.529681        41.6247 
  82   0.0000       1.543257        41.9941 
  83   0.0000       1.568727        42.6872 
  84   0.0000       1.605044        43.6755 
  85   0.0000       1.626290        44.2536 
  86   0.0000       1.662388        45.2359 
  87   0.0000       1.684889        45.8482 
  88   0.0000       1.709122        46.5076 
  89   0.0000       1.759255        47.8718 
  90   0.0000       1.769607        48.1534 
  91   0.0000       1.792235        48.7692 
  92   0.0000       1.816047        49.4171 
  93   0.0000       1.848128        50.2901 
  94   0.0000       1.869340        50.8673 
  95   0.0000       1.886160        51.3250 
  96   0.0000       1.941833        52.8400 
  97   0.0000       1.956974        53.2520 
  98   0.0000       2.006529        54.6004 
  99   0.0000       2.028316        55.1933 
 100   0.0000       2.052745        55.8580 
 101   0.0000       2.079215        56.5783 
 102   0.0000       2.119364        57.6708 
 103   0.0000       2.170871        59.0724 
 104   0.0000       2.188446        59.5506 
 105   0.0000       2.224723        60.5378 
 106   0.0000       2.254256        61.3414 
 107   0.0000       2.278490        62.0009 
 108   0.0000       2.300842        62.6091 
 109   0.0000       2.372989        64.5723 
 110   0.0000       2.433569        66.2208 
 111   0.0000       2.488293        67.7099 
 112   0.0000       2.546138        69.2839 
 113   0.0000       2.568175        69.8836 
 114   0.0000       2.631329        71.6021 
 115   0.0000       2.727815        74.2276 
 116   0.0000       2.752150        74.8898 
 117   0.0000       2.759771        75.0972 
 118   0.0000       2.777426        75.5776 
 119   0.0000       2.838662        77.2439 
 120   0.0000       2.863877        77.9301 
 121   0.0000       2.874588        78.2215 
 122   0.0000       2.922068        79.5135 
 123   0.0000       2.978234        81.0419 
 124   0.0000       3.037796        82.6626 
 125   0.0000       3.079801        83.8056 
 126   0.0000       3.085899        83.9716 
 127   0.0000       3.119663        84.8903 
 128   0.0000       3.183899        86.6383 
 129   0.0000       3.345545        91.0369 
 130   0.0000       3.421328        93.0991 
 131   0.0000       3.462232        94.2121 
 132   0.0000       3.786814       103.0444 

                    ********************************
                    * MULLIKEN POPULATION ANALYSIS *
                    ********************************

--------------------------------------------
MULLIKEN ATOMIC CHARGES AND SPIN POPULATIONS
--------------------------------------------
   0 O :   -0.267236    0.870318
   1 O :   -0.301517    0.133696
   2 C :    0.042021   -0.011655
   3 C :    0.066955    0.005465
   4 C :    0.022999   -0.026500
   5 C :   -0.068857    0.046233
   6 C :    0.074847   -0.001777
   7 H :    0.156802   -0.021178
   8 H :    0.064328    0.002296
   9 H :    0.046113    0.003025
  10 H :    0.035607    0.001481
  11 H :   -0.015553   -0.002066
  12 H :    0.069396    0.000235
  13 H :    0.074096    0.000428
Sum of atomic charges         :    0.0000000
Sum of atomic spin populations:    1.0000000

-----------------------------------------------------
MULLIKEN REDUCED ORBITAL CHARGES AND SPIN POPULATIONS
-----------------------------------------------------
CHARGE
  0 O s       :     3.857484  s :     3.857484
      pz      :     1.497753  p :     4.402467
      px      :     1.189602
      py      :     1.715113
      dz2     :     0.000852  d :     0.007285
      dxz     :     0.001512
      dyz     :     0.002784
      dx2y2   :     0.001090
      dxy     :     0.001048
  1 O s       :     3.885182  s :     3.885182
      pz      :     1.352847  p :     4.396298
      px      :     1.591713
      py      :     1.451738
      dz2     :     0.005569  d :     0.020037
      dxz     :     0.002744
      dyz     :     0.005116
      dx2y2   :     0.003014
      dxy     :     0.003595
  2 C s       :     3.195933  s :     3.195933
      pz      :     0.757639  p :     2.692495
      px      :     0.992991
      py      :     0.941865
      dz2     :     0.020564  d :     0.069552
      dxz     :     0.015458
      dyz     :     0.017634
      dx2y2   :     0.007057
      dxy     :     0.008838
  3 C s       :     3.178397  s :     3.178397
      pz      :     0.952500  p :     2.685184
      px      :     0.919489
      py      :     0.813195
      dz2     :     0.008454  d :     0.069465
      dxz     :     0.011431
      dyz     :     0.012943
      dx2y2   :     0.017631
      dxy     :     0.019005
  4 C s       :     3.165676  s :     3.165676
      pz      :     0.977719  p :     2.779307
      px      :     0.843347
      py      :     0.958241
      dz2     :     0.005280  d :     0.032018
      dxz     :     0.007705
      dyz     :     0.004492
      dx2y2   :     0.007340
      dxy     :     0.007202
  5 C s       :     3.212222  s :     3.212222
      pz      :     0.971717  p :     2.824339
      px      :     0.937561
      py      :     0.915061
      dz2     :     0.007029  d :     0.032296
      dxz     :     0.005622
      dyz     :     0.004476
      dx2y2   :     0.006443
      dxy     :     0.008726
  6 C s       :     2.962950  s :     2.962950
      pz      :     0.975908  p :     2.928181
      px      :     0.933447
      py      :     1.018826
      dz2     :     0.007591  d :     0.034022
      dxz     :     0.006932
      dyz     :     0.005279
      dx2y2   :     0.007228
      dxy     :     0.006992
  7 H s       :     0.775235  s :     0.775235
      pz      :     0.025569  p :     0.067963
      px      :     0.015805
      py      :     0.026588
  8 H s       :     0.912675  s :     0.912675
      pz      :     0.002608  p :     0.022997
      px      :     0.015270
      py      :     0.005120
  9 H s       :     0.931455  s :     0.931455
      pz      :     0.007167  p :     0.022431
      px      :     0.003413
      py      :     0.011852
 10 H s       :     0.940068  s :     0.940068
      pz      :     0.007622  p :     0.024325
      px      :     0.011771
      py      :     0.004931
 11 H s       :     0.986399  s :     0.986399
      pz      :     0.006274  p :     0.029155
      px      :     0.011417
      py      :     0.011464
 12 H s       :     0.907410  s :     0.907410
      pz      :     0.012852  p :     0.023194
      px      :     0.004682
      py      :     0.005659
 13 H s       :     0.902553  s :     0.902553
      pz      :     0.004442  p :     0.023350
      px      :     0.005675
      py      :     0.013233

SPIN
  0 O s       :     0.011889  s :     0.011889
      pz      :     0.138200  p :     0.858129
      px      :     0.702954
      py      :     0.016975
      dz2     :    -0.000052  d :     0.000299
      dxz     :     0.000228
      dyz     :     0.000034
      dx2y2   :    -0.000090
      dxy     :     0.000180
  1 O s       :     0.012184  s :     0.012184
      pz      :     0.021860  p :     0.120868
      px      :     0.083062
      py      :     0.015946
      dz2     :    -0.000142  d :     0.000644
      dxz     :     0.000432
      dyz     :     0.000013
      dx2y2   :     0.000282
      dxy     :     0.000059
  2 C s       :    -0.001544  s :    -0.001544
      pz      :    -0.006638  p :    -0.010901
      px      :    -0.002020
      py      :    -0.002243
      dz2     :     0.000146  d :     0.000790
      dxz     :     0.000527
      dyz     :    -0.000018
      dx2y2   :     0.000018
      dxy     :     0.000118
  3 C s       :     0.000789  s :     0.000789
      pz      :     0.001677  p :     0.003825
      px      :     0.000959
      py      :     0.001189
      dz2     :     0.000022  d :     0.000851
      dxz     :    -0.000029
      dyz     :    -0.000038
      dx2y2   :     0.001054
      dxy     :    -0.000159
  4 C s       :    -0.004069  s :    -0.004069
      pz      :    -0.013240  p :    -0.022816
      px      :     0.001744
      py      :    -0.011320
      dz2     :     0.000100  d :     0.000385
      dxz     :     0.000067
      dyz     :     0.000040
      dx2y2   :     0.000111
      dxy     :     0.000067
  5 C s       :     0.006444  s :     0.006444
      pz      :     0.019415  p :     0.039995
      px      :     0.005828
      py      :     0.014752
      dz2     :    -0.000075  d :    -0.000207
      dxz     :    -0.000021
      dyz     :    -0.000062
      dx2y2   :    -0.000048
      dxy     :    -0.000001
  6 C s       :    -0.001016  s :    -0.001016
      pz      :    -0.000194  p :    -0.000866
      px      :    -0.001213
      py      :     0.000541
      dz2     :     0.000006  d :     0.000105
      dxz     :     0.000037
      dyz     :     0.000011
      dx2y2   :    -0.000007
      dxy     :     0.000058
  7 H s       :    -0.026758  s :    -0.026758
      pz      :     0.001177  p :     0.005580
      px      :     0.004652
      py      :    -0.000249
  8 H s       :     0.002383  s :     0.002383
      pz      :    -0.000049  p :    -0.000087
      px      :    -0.000026
      py      :    -0.000012
  9 H s       :     0.003065  s :     0.003065
      pz      :    -0.000026  p :    -0.000041
      px      :    -0.000013
      py      :    -0.000001
 10 H s       :     0.001594  s :     0.001594
      pz      :    -0.000034  p :    -0.000113
      px      :    -0.000012
      py      :    -0.000068
 11 H s       :    -0.002434  s :    -0.002434
      pz      :     0.000180  p :     0.000368
      px      :     0.000074
      py      :     0.000114
 12 H s       :     0.000214  s :     0.000214
      pz      :    -0.000005  p :     0.000021
      px      :     0.000021
      py      :     0.000004
 13 H s       :     0.000439  s :     0.000439
      pz      :    -0.000002  p :    -0.000011
      px      :    -0.000006
      py      :    -0.000003


                     *******************************
                     * LOEWDIN POPULATION ANALYSIS *
                     *******************************

-------------------------------------------
LOEWDIN ATOMIC CHARGES AND SPIN POPULATIONS
-------------------------------------------
   0 O :   -0.172876    0.826626
   1 O :   -0.106716    0.149127
   2 C :    0.073875   -0.006257
   3 C :    0.052074    0.004681
   4 C :   -0.046786   -0.017930
   5 C :    0.025006    0.035072
   6 C :   -0.043467    0.000283
   7 H :    0.037991    0.004072
   8 H :    0.030080    0.001127
   9 H :    0.026559    0.001699
  10 H :    0.030432    0.000373
  11 H :   -0.000032    0.000564
  12 H :    0.045711    0.000318
  13 H :    0.048149    0.000244

----------------------------------------------------
LOEWDIN REDUCED ORBITAL CHARGES AND SPIN POPULATIONS
----------------------------------------------------
CHARGE
  0 O s       :     3.678667  s :     3.678667
      pz      :     1.537686  p :     4.480996
      px      :     1.209645
      py      :     1.733664
      dz2     :     0.000944  d :     0.013213
      dxz     :     0.002854
      dyz     :     0.005895
      dx2y2   :     0.001659
      dxy     :     0.001861
  1 O s       :     3.578058  s :     3.578058
      pz      :     1.407009  p :     4.495578
      px      :     1.580846
      py      :     1.507722
      dz2     :     0.008899  d :     0.033081
      dxz     :     0.004250
      dyz     :     0.009304
      dx2y2   :     0.004652
      dxy     :     0.005975
  2 C s       :     2.862043  s :     2.862043
      pz      :     0.853668  p :     2.910889
      px      :     1.057526
      py      :     0.999695
      dz2     :     0.041346  d :     0.153193
      dxz     :     0.036603
      dyz     :     0.039604
      dx2y2   :     0.014624
      dxy     :     0.021017
  3 C s       :     2.862412  s :     2.862412
      pz      :     1.017026  p :     2.931187
      px      :     0.992391
      py      :     0.921770
      dz2     :     0.018381  d :     0.154327
      dxz     :     0.026262
      dyz     :     0.028657
      dx2y2   :     0.041298
      dxy     :     0.039730
  4 C s       :     2.889976  s :     2.889976
      pz      :     1.024145  p :     3.074327
      px      :     1.022083
      py      :     1.028099
      dz2     :     0.011684  d :     0.082483
      dxz     :     0.019382
      dyz     :     0.012736
      dx2y2   :     0.020742
      dxy     :     0.017939
  5 C s       :     2.873655  s :     2.873655
      pz      :     0.991593  p :     3.020765
      px      :     1.005442
      py      :     1.023731
      dz2     :     0.014536  d :     0.080575
      dxz     :     0.013586
      dyz     :     0.013316
      dx2y2   :     0.018247
      dxy     :     0.020890
  6 C s       :     2.847583  s :     2.847583
      pz      :     1.039157  p :     3.109076
      px      :     1.012119
      py      :     1.057801
      dz2     :     0.019450  d :     0.086808
      dxz     :     0.018130
      dyz     :     0.013085
      dx2y2   :     0.018861
      dxy     :     0.017281
  7 H s       :     0.776104  s :     0.776104
      pz      :     0.072653  p :     0.185905
      px      :     0.041920
      py      :     0.071332
  8 H s       :     0.896464  s :     0.896464
      pz      :     0.011012  p :     0.073456
      px      :     0.044934
      py      :     0.017510
  9 H s       :     0.903215  s :     0.903215
      pz      :     0.022244  p :     0.070225
      px      :     0.013365
      py      :     0.034616
 10 H s       :     0.896969  s :     0.896969
      pz      :     0.022484  p :     0.072600
      px      :     0.035019
      py      :     0.015097
 11 H s       :     0.906985  s :     0.906985
      pz      :     0.022589  p :     0.093048
      px      :     0.036522
      py      :     0.033937
 12 H s       :     0.887377  s :     0.887377
      pz      :     0.037313  p :     0.066912
      px      :     0.013659
      py      :     0.015940
 13 H s       :     0.883064  s :     0.883064
      pz      :     0.013036  p :     0.068787
      px      :     0.017634
      py      :     0.038117

SPIN
  0 O s       :     0.010941  s :     0.010941
      pz      :     0.129824  p :     0.815569
      px      :     0.671472
      py      :     0.014274
      dz2     :    -0.000038  d :     0.000116
      dxz     :     0.000273
      dyz     :    -0.000257
      dx2y2   :     0.000068
      dxy     :     0.000069
  1 O s       :     0.017899  s :     0.017899
      pz      :     0.022742  p :     0.130355
      px      :     0.093346
      py      :     0.014267
      dz2     :    -0.000097  d :     0.000873
      dxz     :     0.000515
      dyz     :     0.000009
      dx2y2   :     0.000388
      dxy     :     0.000059
  2 C s       :    -0.000886  s :    -0.000886
      pz      :    -0.003951  p :    -0.007490
      px      :    -0.000924
      py      :    -0.002615
      dz2     :     0.000547  d :     0.002119
      dxz     :     0.001358
      dyz     :    -0.000072
      dx2y2   :     0.000072
      dxy     :     0.000215
  3 C s       :    -0.000013  s :    -0.000013
      pz      :     0.001766  p :     0.003093
      px      :     0.000589
      py      :     0.000738
      dz2     :    -0.000019  d :     0.001601
      dxz     :    -0.000070
      dyz     :    -0.000019
      dx2y2   :     0.001930
      dxy     :    -0.000221
  4 C s       :    -0.000171  s :    -0.000171
      pz      :    -0.010275  p :    -0.018724
      px      :     0.001036
      py      :    -0.009485
      dz2     :     0.000206  d :     0.000965
      dxz     :     0.000133
      dyz     :     0.000067
      dx2y2   :     0.000391
      dxy     :     0.000168
  5 C s       :     0.001430  s :     0.001430
      pz      :     0.017409  p :     0.034094
      px      :     0.005450
      py      :     0.011234
      dz2     :    -0.000193  d :    -0.000452
      dxz     :    -0.000031
      dyz     :    -0.000083
      dx2y2   :    -0.000117
      dxy     :    -0.000028
  6 C s       :     0.000040  s :     0.000040
      pz      :     0.000019  p :    -0.000019
      px      :    -0.000456
      py      :     0.000418
      dz2     :     0.000029  d :     0.000262
      dxz     :     0.000101
      dyz     :     0.000028
      dx2y2   :    -0.000009
      dxy     :     0.000113
  7 H s       :    -0.018071  s :    -0.018071
      pz      :     0.005909  p :     0.022143
      px      :     0.015039
      py      :     0.001195
  8 H s       :     0.001424  s :     0.001424
      pz      :    -0.000150  p :    -0.000297
      px      :    -0.000051
      py      :    -0.000095
  9 H s       :     0.001741  s :     0.001741
      pz      :     0.000047  p :    -0.000042
      px      :     0.000011
      py      :    -0.000100
 10 H s       :     0.000845  s :     0.000845
      pz      :    -0.000232  p :    -0.000471
      px      :    -0.000004
      py      :    -0.000236
 11 H s       :    -0.000896  s :    -0.000896
      pz      :     0.000692  p :     0.001460
      px      :     0.000302
      py      :     0.000466
 12 H s       :     0.000251  s :     0.000251
      pz      :    -0.000003  p :     0.000067
      px      :     0.000053
      py      :     0.000018
 13 H s       :     0.000267  s :     0.000267
      pz      :     0.000003  p :    -0.000023
      px      :    -0.000020
      py      :    -0.000006


                      *****************************
                      * MAYER POPULATION ANALYSIS *
                      *****************************

  NA   - Mulliken gross atomic population
  ZA   - Total nuclear charge
  QA   - Mulliken gross atomic charge
  VA   - Mayer's total valence
  BVA  - Mayer's bonded valence
  FA   - Mayer's free valence

  ATOM       NA         ZA         QA         VA         BVA        FA
  0 O      8.2672     8.0000    -0.2672     2.0124     1.2986     0.7138
  1 O      8.3015     8.0000    -0.3015     2.0740     2.0539     0.0201
  2 C      5.9580     6.0000     0.0420     3.9472     3.9471     0.0001
  3 C      5.9330     6.0000     0.0670     3.9131     3.9130     0.0001
  4 C      5.9770     6.0000     0.0230     3.7748     3.7742     0.0006
  5 C      6.0689     6.0000    -0.0689     3.9682     3.9668     0.0014
  6 C      5.9252     6.0000     0.0748     3.8145     3.8145     0.0000
  7 H      0.8432     1.0000     0.1568     1.0175     1.0164     0.0011
  8 H      0.9357     1.0000     0.0643     1.0191     1.0191     0.0000
  9 H      0.9539     1.0000     0.0461     0.9914     0.9914     0.0000
 10 H      0.9644     1.0000     0.0356     0.9893     0.9893     0.0000
 11 H      1.0156     1.0000    -0.0156     1.0021     1.0021     0.0000
 12 H      0.9306     1.0000     0.0694     0.9772     0.9772     0.0000
 13 H      0.9259     1.0000     0.0741     0.9811     0.9811     0.0000

  Mayer bond orders larger than 0.100000
B(  0-O ,  1-O ) :   0.1998 B(  0-O ,  7-H ) :   0.9971 B(  1-O ,  2-C ) :   0.8979 
B(  1-O ,  3-C ) :   0.8872 B(  2-C ,  3-C ) :   1.0182 B(  2-C ,  6-C ) :   1.0034 
B(  2-C ,  8-H ) :   0.9603 B(  3-C ,  4-C ) :   0.9844 B(  3-C ,  9-H ) :   0.9735 
B(  4-C ,  5-C ) :   1.8099 B(  4-C , 10-H ) :   0.9964 B(  5-C ,  6-C ) :   1.0070 
B(  5-C , 11-H ) :   0.9983 B(  6-C , 12-H ) :   0.9295 B(  6-C , 13-H ) :   0.9295 



------------------
HIRSHFELD ANALYSIS
------------------

Total integrated alpha density =     27.000007442
Total integrated beta density  =     26.000008005

  ATOM     CHARGE      SPIN    
   0 O   -0.268441    0.799040
   1 O   -0.125430    0.148759
   2 C    0.058823   -0.001111
   3 C    0.043048    0.006508
   4 C   -0.045501   -0.010388
   5 C   -0.017188    0.028390
   6 C   -0.037162    0.002192
   7 H    0.128270    0.021373
   8 H    0.052981    0.001180
   9 H    0.050923    0.001227
  10 H    0.041187   -0.000504
  11 H    0.039255    0.002391
  12 H    0.036225    0.000596
  13 H    0.042996    0.000345

  TOTAL  -0.000015    0.999999

-------
TIMINGS
-------

Total SCF time: 0 days 0 hours 0 min 50 sec 

Total time                  ....      50.027 sec
Sum of individual times     ....      49.879 sec  ( 99.7%)

Fock matrix formation       ....      48.081 sec  ( 96.1%)
  Split-RI-J                ....       3.087 sec  (  6.4% of F)
  Chain of spheres X        ....      32.818 sec  ( 68.3% of F)
  XC integration            ....      12.188 sec  ( 25.3% of F)
    Basis function eval.    ....       3.422 sec  ( 28.1% of XC)
    Density eval.           ....       3.282 sec  ( 26.9% of XC)
    XC-Functional eval.     ....       1.163 sec  (  9.5% of XC)
    XC-Potential eval.      ....       4.034 sec  ( 33.1% of XC)
Diagonalization             ....       0.076 sec  (  0.2%)
Density matrix formation    ....       0.006 sec  (  0.0%)
Population analysis         ....       0.351 sec  (  0.7%)
Initial guess               ....       0.216 sec  (  0.4%)
Orbital Transformation      ....       0.000 sec  (  0.0%)
Orbital Orthonormalization  ....       0.000 sec  (  0.0%)
DIIS solution               ....       0.019 sec  (  0.0%)
Grid generation             ....       1.130 sec  (  2.3%)

Maximum memory used throughout the entire SCF-calculation: 63.5 MB


-------------------------------------------------------------------------------
                          DFT DISPERSION CORRECTION                            
                                                                               
                              DFTD3 V3.1  Rev 1                                
                          USING Becke-Johnson damping                          
-------------------------------------------------------------------------------
The PBE0 functional is recognized
Active option DFTDOPT                   ...         4   

molecular C6(AA) [au] = 1744.700967 


            DFT-D V3
 parameters
 s6 scaling factor         :     1.0000 
 a1 scaling factor         :     0.4145 
 s8 scaling factor         :     1.2177 
 a2 scaling factor         :     4.8593 
 ad hoc parameters k1-k3   :    16.0000     1.3333    -4.0000 

 Edisp/kcal,au: -6.158543316121  -0.009814262435 
 E6   /kcal   :  -3.917207349 
 E8   /kcal   :  -2.241335967 
 % E8         :  36.393930383 

-------------------------   ----------------
Dispersion correction           -0.009814262
-------------------------   ----------------


-------------------------   --------------------
FINAL SINGLE POINT ENERGY      -344.361873102286
-------------------------   --------------------

------------------------------------------------------------------------------
                         ORCA SCF GRADIENT CALCULATION
------------------------------------------------------------------------------

 ... reading COSX grid (gridx3)
Gradient of the Kohn-Sham DFT energy:
Kohn-Sham wavefunction type      ... UKS
Hartree-Fock exchange scaling    ...    0.250
Number of operators              ...    2
Number of atoms                  ...   14
Basis set dimensions             ...  133
Integral neglect threshold       ... 2.5e-11
Integral primitive cutoff        ... 2.5e-12
SHARK Integral package           ... ON

Nuc. rep. gradient       (SHARK) ... done (  0.0 sec)
HCore & Overlap gradient (SHARK) ... done (  0.1 sec)
RI-J gradient            (SHARK) ... done (  0.6 sec)
COSX-gradient                    ... done (  6.6 sec)
Exchange-correlation gradient    ... done
Dispersion correction            ... done

------------------
CARTESIAN GRADIENT
------------------

   1   O   :    0.025542925   -0.001325273   -0.004770962
   2   O   :   -0.000025056   -0.015059022    0.011307281
   3   C   :   -0.015299136    0.013713289   -0.019208609
   4   C   :    0.000002101    0.014282457   -0.000401178
   5   C   :   -0.009359127    0.044581288    0.038827666
   6   C   :    0.097531420   -0.119636957   -0.040989575
   7   C   :   -0.025442200   -0.000096439    0.001197552
   8   H   :   -0.000566904   -0.001134402   -0.005019985
   9   H   :    0.002862158   -0.000697932    0.002057196
  10   H   :   -0.002113459   -0.003062338    0.001980243
  11   H   :   -0.001387045   -0.002806046   -0.005146749
  12   H   :   -0.078560758    0.067700417    0.020775496
  13   H   :    0.006225124    0.000228689   -0.000809091
  14   H   :    0.000486607    0.003390565    0.000200954

Difference to translation invariance:
           :   -0.0001033511    0.0000782967    0.0000002371

Difference to rotation invariance:
           :   -0.0006987184    0.0000934632   -0.0004697078

Norm of the cartesian gradient     ...    0.2075946469
RMS gradient                       ...    0.0320325495
MAX gradient                       ...    0.1196369568

-------
TIMINGS
-------

Total SCF gradient time            ...       11.136 sec

One electron gradient       ....       0.095 sec  (  0.9%)
RI-J Coulomb gradient       ....       0.586 sec  (  5.3%)
COSX gradient               ....       6.634 sec  ( 59.6%)
XC gradient                 ....       3.527 sec  ( 31.7%)

Maximum memory used throughout the entire SCFGRAD-calculation: 50.3 MB

                            ***************************************
                            *     ORCA property calculations      *
                            ***************************************

                                    ---------------------
                                    Active property flags
                                    ---------------------
   (+) Dipole Moment


------------------------------------------------------------------------------
                       ORCA ELECTRIC PROPERTIES CALCULATION
------------------------------------------------------------------------------

Dipole Moment Calculation                       ... on
Quadrupole Moment Calculation                   ... off
Polarizability Calculation                      ... off
GBWName                                         ... 14_1_orca.gbw
Electron density                                ... 14_1_orca.scfp
The origin for moment calculation is the CENTER OF MASS  = (-0.343628, -0.084894  0.393529)

-------------
DIPOLE MOMENT
-------------
                                X             Y             Z
Electronic contribution:     -0.81718       0.19870       1.76713
Nuclear contribution   :      1.65543       0.50233      -2.23759
                        -----------------------------------------
Total Dipole Moment    :      0.83824       0.70103      -0.47047
                        -----------------------------------------
Magnitude (a.u.)       :      1.18972
Magnitude (Debye)      :      3.02402



--------------------
Rotational spectrum 
--------------------
 
Rotational constants in cm-1:     0.193900     0.068473     0.058514 
Rotational constants in MHz :  5812.961492  2052.778360  1754.199338 

 Dipole components along the rotational axes: 
x,y,z [a.u.] :     0.930681     0.399602     0.624165 
x,y,z [Debye]:     2.365602     1.015707     1.586501 

 

Timings for individual modules:

Sum of individual times         ...       61.372 sec (=   1.023 min)
GTO integral calculation        ...        0.158 sec (=   0.003 min)   0.3 %
SCF iterations                  ...       50.050 sec (=   0.834 min)  81.6 %
SCF Gradient evaluation         ...       11.164 sec (=   0.186 min)  18.2 %
                             ****ORCA TERMINATED NORMALLY****
TOTAL RUN TIME: 0 days 0 hours 1 minutes 1 seconds 526 msec
