
                                 *****************
                                 * O   R   C   A *
                                 *****************

                                            #,                                       
                                            ###                                      
                                            ####                                     
                                            #####                                    
                                            ######                                   
                                           ########,                                 
                                     ,,################,,,,,                         
                               ,,#################################,,                 
                          ,,##########################################,,             
                       ,#########################################, ''#####,          
                    ,#############################################,,   '####,        
                  ,##################################################,,,,####,       
                ,###########''''           ''''###############################       
              ,#####''   ,,,,##########,,,,          '''####'''          '####       
            ,##' ,,,,###########################,,,                        '##       
           ' ,,###''''                  '''############,,,                           
         ,,##''                                '''############,,,,        ,,,,,,###''
      ,#''                                            '''#######################'''  
     '                                                          ''''####''''         
             ,#######,   #######,   ,#######,      ##                                
            ,#'     '#,  ##    ##  ,#'     '#,    #''#        ######   ,####,        
            ##       ##  ##   ,#'  ##            #'  '#       #        #'  '#        
            ##       ##  #######   ##           ,######,      #####,   #    #        
            '#,     ,#'  ##    ##  '#,     ,#' ,#      #,         ##   #,  ,#        
             '#######'   ##     ##  '#######'  #'      '#     #####' # '####'        



                  #######################################################
                  #                        -***-                        #
                  #          Department of theory and spectroscopy      #
                  #    Directorship and core code : Frank Neese         #
                  #        Max Planck Institute fuer Kohlenforschung    #
                  #                Kaiser Wilhelm Platz 1               #
                  #                 D-45470 Muelheim/Ruhr               #
                  #                      Germany                        #
                  #                                                     #
                  #                  All rights reserved                #
                  #                        -***-                        #
                  #######################################################


                         Program Version 5.0.4 -  RELEASE  -


 With contributions from (in alphabetic order):
   Daniel Aravena         : Magnetic Suceptibility
   Michael Atanasov       : Ab Initio Ligand Field Theory (pilot matlab implementation)
   Alexander A. Auer      : GIAO ZORA, VPT2 properties, NMR spectrum
   Ute Becker             : Parallelization
   Giovanni Bistoni       : ED, misc. LED, open-shell LED, HFLD
   Martin Brehm           : Molecular dynamics
   Dmytro Bykov           : SCF Hessian
   Vijay G. Chilkuri      : MRCI spin determinant printing, contributions to CSF-ICE
   Dipayan Datta          : RHF DLPNO-CCSD density
   Achintya Kumar Dutta   : EOM-CC, STEOM-CC
   Dmitry Ganyushin       : Spin-Orbit,Spin-Spin,Magnetic field MRCI
   Miquel Garcia          : C-PCM and meta-GGA Hessian, CC/C-PCM, Gaussian charge scheme
   Yang Guo               : DLPNO-NEVPT2, F12-NEVPT2, CIM, IAO-localization
   Andreas Hansen         : Spin unrestricted coupled pair/coupled cluster methods
   Benjamin Helmich-Paris : MC-RPA, TRAH-SCF, COSX integrals
   Lee Huntington         : MR-EOM, pCC
   Robert Izsak           : Overlap fitted RIJCOSX, COSX-SCS-MP3, EOM
   Marcus Kettner         : VPT2
   Christian Kollmar      : KDIIS, OOCD, Brueckner-CCSD(T), CCSD density, CASPT2, CASPT2-K
   Simone Kossmann        : Meta GGA functionals, TD-DFT gradient, OOMP2, MP2 Hessian
   Martin Krupicka        : Initial AUTO-CI
   Lucas Lang             : DCDCAS
   Marvin Lechner         : AUTO-CI (C++ implementation), FIC-MRCC
   Dagmar Lenk            : GEPOL surface, SMD
   Dimitrios Liakos       : Extrapolation schemes; Compound Job, initial MDCI parallelization
   Dimitrios Manganas     : Further ROCIS development; embedding schemes
   Dimitrios Pantazis     : SARC Basis sets
   Anastasios Papadopoulos: AUTO-CI, single reference methods and gradients
   Taras Petrenko         : DFT Hessian,TD-DFT gradient, ASA, ECA, R-Raman, ABS, FL, XAS/XES, NRVS
   Peter Pinski           : DLPNO-MP2, DLPNO-MP2 Gradient
   Christoph Reimann      : Effective Core Potentials
   Marius Retegan         : Local ZFS, SOC
   Christoph Riplinger    : Optimizer, TS searches, QM/MM, DLPNO-CCSD(T), (RO)-DLPNO pert. Triples
   Tobias Risthaus        : Range-separated hybrids, TD-DFT gradient, RPA, STAB
   Michael Roemelt        : Original ROCIS implementation
   Masaaki Saitow         : Open-shell DLPNO-CCSD energy and density
   Barbara Sandhoefer     : DKH picture change effects
   Avijit Sen             : IP-ROCIS
   Kantharuban Sivalingam : CASSCF convergence, NEVPT2, FIC-MRCI
   Bernardo de Souza      : ESD, SOC TD-DFT
   Georgi Stoychev        : AutoAux, RI-MP2 NMR, DLPNO-MP2 response
   Willem Van den Heuvel  : Paramagnetic NMR
   Boris Wezisla          : Elementary symmetry handling
   Frank Wennmohs         : Technical directorship


 We gratefully acknowledge several colleagues who have allowed us to
 interface, adapt or use parts of their codes:
   Stefan Grimme, W. Hujo, H. Kruse, P. Pracht,  : VdW corrections, initial TS optimization,
                  C. Bannwarth, S. Ehlert          DFT functionals, gCP, sTDA/sTD-DF
   Ed Valeev, F. Pavosevic, A. Kumar             : LibInt (2-el integral package), F12 methods
   Garnet Chan, S. Sharma, J. Yang, R. Olivares  : DMRG
   Ulf Ekstrom                                   : XCFun DFT Library
   Mihaly Kallay                                 : mrcc  (arbitrary order and MRCC methods)
   Jiri Pittner, Ondrej Demel                    : Mk-CCSD
   Frank Weinhold                                : gennbo (NPA and NBO analysis)
   Christopher J. Cramer and Donald G. Truhlar   : smd solvation model
   Lars Goerigk                                  : TD-DFT with DH, B97 family of functionals
   V. Asgeirsson, H. Jonsson                     : NEB implementation
   FAccTs GmbH                                   : IRC, NEB, NEB-TS, DLPNO-Multilevel, CI-OPT
                                                   MM, QMMM, 2- and 3-layer-ONIOM, Crystal-QMMM,
                                                   LR-CPCM, SF, NACMEs, symmetry and pop. for TD-DFT,
                                                   nearIR, NL-DFT gradient (VV10), updates on ESD,
                                                   ML-optimized integration grids
   S Lehtola, MJT Oliveira, MAL Marques          : LibXC Library
   Liviu Ungur et al                             : ANISO software


 Your calculation uses the libint2 library for the computation of 2-el integrals
 For citations please refer to: http://libint.valeyev.net

 Your ORCA version has been built with support for libXC version: 5.1.0
 For citations please refer to: https://tddft.org/programs/libxc/

 This ORCA versions uses:
   CBLAS   interface :  Fast vector & matrix operations
   LAPACKE interface :  Fast linear algebra routines
   SCALAPACK package :  Parallel linear algebra routines
   Shared memory     :  Shared parallel matrices
   BLAS/LAPACK       :  OpenBLAS 0.3.15  USE64BITINT DYNAMIC_ARCH NO_AFFINITY SkylakeX SINGLE_THREADED
        Core in use  :  SkylakeX
   Copyright (c) 2011-2014, The OpenBLAS Project


Your calculation utilizes the atom-pairwise dispersion correction
with the Becke-Johnson damping scheme (D3BJ)
Cite in your paper:
S.Grimme, S.Ehrlich, L.Goerigk, J Comput Chem, (2011), 32, 1456–1465 
S.Grimme, J.Antony, S.Ehrlich and H.Krieg, J.Chem.Phys., 132, (2010), 154104 
   

================================================================================

----- Orbital basis set information -----
Your calculation utilizes the basis: def2-SVP
   F. Weigend and R. Ahlrichs, Phys. Chem. Chem. Phys. 7, 3297 (2005).

----- AuxJ basis set information -----
Your calculation utilizes the auxiliary basis: def2/J
   F. Weigend, Phys. Chem. Chem. Phys. 8, 1057 (2006).

================================================================================
                                        WARNINGS
                       Please study these warnings very carefully!
================================================================================


WARNING: your system is open-shell and RHF/RKS was chosen
  ===> : WILL SWITCH to UHF/UKS


INFO   : the flag for use of the SHARK integral package has been found!

================================================================================
                                       INPUT FILE
================================================================================
NAME = 14_2_orca.inp
|  1> ! EnGrad PBE0 RIJCOSX D3BJ def2-SVP def2/J 
|  2> %output 
|  3> xyzfile=True 
|  4> end 
|  5> %scf 
|  6> maxiter 250 
|  7> end
|  8> %output
|  9> Print[P_Hirshfeld] = 1
| 10> end
| 11> % maxcore
| 12> 4000
| 13> *xyz 0 2
| 14> O   -2.46555215  -0.20863065   1.62282431 
| 15> O   -0.58665994  -0.27660903   0.89741993 
| 16> C   -0.73584501   0.22044375  -0.43161327 
| 17> C    0.14939944   0.90482646   0.52500561 
| 18> C    1.52690626   0.41357319   0.27131876 
| 19> C    1.45056044  -0.60092028  -0.60444013 
| 20> C    0.10487406  -0.66062211  -1.31466170 
| 21> H   -2.10130009   0.38194823   2.29855965 
| 22> H   -1.74389859   0.57710967  -0.66967277 
| 23> H   -0.13413527   1.80440964   1.08210699 
| 24> H    2.41687580   0.71071677   0.83377220 
| 25> H    2.20801946  -1.33057649  -0.77694984 
| 26> H    0.25720530  -0.27425546  -2.33903086 
| 27> H   -0.34623463  -1.66140003  -1.39410181 
| 28> *
| 29> 
| 30>                          ****END OF INPUT****
================================================================================

                     *******************************
                     * Energy+Gradient Calculation *
                     *******************************

---------------------------------
CARTESIAN COORDINATES (ANGSTROEM)
---------------------------------
  O     -2.465552   -0.208631    1.622824
  O     -0.586660   -0.276609    0.897420
  C     -0.735845    0.220444   -0.431613
  C      0.149399    0.904826    0.525006
  C      1.526906    0.413573    0.271319
  C      1.450560   -0.600920   -0.604440
  C      0.104874   -0.660622   -1.314662
  H     -2.101300    0.381948    2.298560
  H     -1.743899    0.577110   -0.669673
  H     -0.134135    1.804410    1.082107
  H      2.416876    0.710717    0.833772
  H      2.208019   -1.330576   -0.776950
  H      0.257205   -0.274255   -2.339031
  H     -0.346235   -1.661400   -1.394102

----------------------------
CARTESIAN COORDINATES (A.U.)
----------------------------
  NO LB      ZA    FRAG     MASS         X           Y           Z
   0 O     8.0000    0    15.999   -4.659218   -0.394255    3.066694
   1 O     8.0000    0    15.999   -1.108627   -0.522715    1.695878
   2 C     6.0000    0    12.011   -1.390546    0.416578   -0.815631
   3 C     6.0000    0    12.011    0.282324    1.709874    0.992117
   4 C     6.0000    0    12.011    2.885435    0.781540    0.512718
   5 C     6.0000    0    12.011    2.741162   -1.135575   -1.142226
   6 C     6.0000    0    12.011    0.198183   -1.248395   -2.484351
   7 H     1.0000    0     1.008   -3.970882    0.721778    4.343648
   8 H     1.0000    0     1.008   -3.295491    1.090579   -1.265498
   9 H     1.0000    0     1.008   -0.253479    3.409840    2.044886
  10 H     1.0000    0     1.008    4.567233    1.343060    1.575601
  11 H     1.0000    0     1.008    4.172552   -2.514425   -1.468222
  12 H     1.0000    0     1.008    0.486048   -0.518268   -4.420128
  13 H     1.0000    0     1.008   -0.654289   -3.139591   -2.634471

--------------------------------
INTERNAL COORDINATES (ANGSTROEM)
--------------------------------
 O      0   0   0     0.000000000000     0.00000000     0.00000000
 O      1   0   0     2.015209297187     0.00000000     0.00000000
 C      2   1   0     1.426760981356   103.06567423     0.00000000
 C      2   1   3     1.440925276917   122.79580416    64.65424309
 C      4   2   1     1.484322010985   104.29277391   170.85263225
 C      5   4   2     1.342378232213   107.98947356    52.87129453
 C      3   2   1     1.504280603493   106.51876942   222.56184831
 H      1   2   3     0.968545934089    85.47278754   239.37826566
 H      3   2   1     1.095470184067   114.33503872     5.22900346
 H      4   2   1     1.095446839017   114.18339356    28.48891061
 H      5   4   2     1.093935080995   125.25599345   242.70250593
 H      6   5   4     1.065787010530   125.63164875   198.31548762
 H      7   3   2     1.105357937897   114.60160313   192.12634522
 H      7   3   2     1.100620836814   110.23520594    70.17873349

---------------------------
INTERNAL COORDINATES (A.U.)
---------------------------
 O      0   0   0     0.000000000000     0.00000000     0.00000000
 O      1   0   0     3.808193674216     0.00000000     0.00000000
 C      2   1   0     2.696187513327   103.06567423     0.00000000
 C      2   1   3     2.722954152818   122.79580416    64.65424309
 C      4   2   1     2.804962095313   104.29277391   170.85263225
 C      5   4   2     2.536727227019   107.98947356    52.87129453
 C      3   2   1     2.842678369171   106.51876942   222.56184831
 H      1   2   3     1.830286563552    85.47278754   239.37826566
 H      3   2   1     2.070138635764   114.33503872     5.22900346
 H      4   2   1     2.070094520011   114.18339356    28.48891061
 H      5   4   2     2.067237711369   125.25599345   242.70250593
 H      6   5   4     2.014045566993   125.63164875   198.31548762
 H      7   3   2     2.088823782581   114.60160313   192.12634522
 H      7   3   2     2.079871958866   110.23520594    70.17873349

---------------------
BASIS SET INFORMATION
---------------------
There are 3 groups of distinct atoms

 Group   1 Type O   : 7s4p1d contracted to 3s2p1d pattern {511/31/1}
 Group   2 Type C   : 7s4p1d contracted to 3s2p1d pattern {511/31/1}
 Group   3 Type H   : 4s1p contracted to 2s1p pattern {31/1}

Atom   0O    basis set group =>   1
Atom   1O    basis set group =>   1
Atom   2C    basis set group =>   2
Atom   3C    basis set group =>   2
Atom   4C    basis set group =>   2
Atom   5C    basis set group =>   2
Atom   6C    basis set group =>   2
Atom   7H    basis set group =>   3
Atom   8H    basis set group =>   3
Atom   9H    basis set group =>   3
Atom  10H    basis set group =>   3
Atom  11H    basis set group =>   3
Atom  12H    basis set group =>   3
Atom  13H    basis set group =>   3
---------------------------------
AUXILIARY/J BASIS SET INFORMATION
---------------------------------
There are 3 groups of distinct atoms

 Group   1 Type O   : 12s5p4d2f1g contracted to 6s4p3d1f1g pattern {711111/2111/211/2/1}
 Group   2 Type C   : 12s5p4d2f1g contracted to 6s4p3d1f1g pattern {711111/2111/211/2/1}
 Group   3 Type H   : 5s2p1d contracted to 3s1p1d pattern {311/2/1}

Atom   0O    basis set group =>   1
Atom   1O    basis set group =>   1
Atom   2C    basis set group =>   2
Atom   3C    basis set group =>   2
Atom   4C    basis set group =>   2
Atom   5C    basis set group =>   2
Atom   6C    basis set group =>   2
Atom   7H    basis set group =>   3
Atom   8H    basis set group =>   3
Atom   9H    basis set group =>   3
Atom  10H    basis set group =>   3
Atom  11H    basis set group =>   3
Atom  12H    basis set group =>   3
Atom  13H    basis set group =>   3
------------------------------------------------------------------------------
                           ORCA GTO INTEGRAL CALCULATION
                           -- RI-GTO INTEGRALS CHOSEN --
------------------------------------------------------------------------------
------------------------------------------------------------------------------
                   ___                                                        
                  /   \      - P O W E R E D   B Y -                         
                 /     \                                                     
                 |  |  |   _    _      __       _____    __    __             
                 |  |  |  | |  | |    /  \     |  _  \  |  |  /  |          
                  \  \/   | |  | |   /    \    | | | |  |  | /  /          
                 / \  \   | |__| |  /  /\  \   | |_| |  |  |/  /          
                |  |  |   |  __  | /  /__\  \  |    /   |      \           
                |  |  |   | |  | | |   __   |  |    \   |  |\   \          
                \     /   | |  | | |  |  |  |  | |\  \  |  | \   \       
                 \___/    |_|  |_| |__|  |__|  |_| \__\ |__|  \__/        
                                                                              
                      - O R C A' S   B I G   F R I E N D -                    
                                      &                                       
                       - I N T E G R A L  F E E D E R -                       
                                                                              
 v1 FN, 2020, v2 2021                                                         
------------------------------------------------------------------------------


Reading SHARK input file 14_2_orca.SHARKINP.tmp ... ok
----------------------
SHARK INTEGRAL PACKAGE
----------------------

Number of atoms                             ...     14
Number of basis functions                   ...    133
Number of shells                            ...     63
Maximum angular momentum                    ...      2
Integral batch strategy                     ... SHARK/LIBINT Hybrid
RI-J (if used) integral strategy            ... SPLIT-RIJ (Revised 2003 algorithm where possible)
Printlevel                                  ...      1
Contraction scheme used                     ... SEGMENTED contraction
Coulomb Range Separation                    ... NOT USED
Exchange Range Separation                   ... NOT USED
Finite Nucleus Model                        ... NOT USED
Auxiliary Coulomb fitting basis             ... AVAILABLE
   # of basis functions in Aux-J            ...    420
   # of shells in Aux-J                     ...    140
   Maximum angular momentum in Aux-J        ...      4
Auxiliary J/K fitting basis                 ... NOT available
Auxiliary Correlation fitting basis         ... NOT available
Auxiliary 'external' fitting basis          ... NOT available
Integral threshold                          ...     2.500000e-11
Primitive cut-off                           ...     2.500000e-12
Primitive pair pre-selection threshold      ...     2.500000e-12

Calculating pre-screening integrals         ... done (  0.0 sec) Dimension = 63
Organizing shell pair data                  ... done (  0.0 sec)
Shell pair information
Total number of shell pairs                 ...      2016
Shell pairs after pre-screening             ...      1948
Total number of primitive shell pairs       ...      7252
Primitive shell pairs kept                  ...      5344
          la=0 lb=0:    606 shell pairs
          la=1 lb=0:    711 shell pairs
          la=1 lb=1:    225 shell pairs
          la=2 lb=0:    236 shell pairs
          la=2 lb=1:    143 shell pairs
          la=2 lb=2:     27 shell pairs

Calculating one electron integrals          ... done (  0.0 sec)
Calculating RI/J V-Matrix + Cholesky decomp.... done (  0.0 sec)
Calculating Nuclear repulsion               ... done (  0.0 sec) ENN=    301.224963840266 Eh

SHARK setup successfully completed in   0.1 seconds

Maximum memory used throughout the entire GTOINT-calculation: 16.8 MB
-------------------------------------------------------------------------------
                                 ORCA SCF
-------------------------------------------------------------------------------

------------
SCF SETTINGS
------------
Hamiltonian:
 Density Functional     Method          .... DFT(GTOs)
 Exchange Functional    Exchange        .... PBE
   PBE kappa parameter   XKappa         ....  0.804000
   PBE mue parameter    XMuePBE         ....  0.219520
 Correlation Functional Correlation     .... PBE
   PBE beta parameter  CBetaPBE         ....  0.066725
 LDA part of GGA corr.  LDAOpt          .... PW91-LDA
 Gradients option       PostSCFGGA      .... off
 Hybrid DFT is turned on
   Fraction HF Exchange ScalHFX         ....  0.250000
   Scaling of DF-GGA-X  ScalDFX         ....  0.750000
   Scaling of DF-GGA-C  ScalDFC         ....  1.000000
   Scaling of DF-LDA-C  ScalLDAC        ....  1.000000
   Perturbative correction              ....  0.000000
   Density functional embedding theory  .... OFF
   NL short-range parameter             ....  6.900000
 RI-approximation to the Coulomb term is turned on
   Number of AuxJ basis functions       .... 420
   RIJ-COSX (HFX calculated with COS-X)).... on


General Settings:
 Integral files         IntName         .... 14_2_orca
 Hartree-Fock type      HFTyp           .... UHF
 Total Charge           Charge          ....    0
 Multiplicity           Mult            ....    2
 Number of Electrons    NEL             ....   53
 Basis Dimension        Dim             ....  133
 Nuclear Repulsion      ENuc            ....    301.2249638403 Eh

Convergence Acceleration:
 DIIS                   CNVDIIS         .... on
   Start iteration      DIISMaxIt       ....    12
   Startup error        DIISStart       ....  0.200000
   # of expansion vecs  DIISMaxEq       ....     5
   Bias factor          DIISBfac        ....   1.050
   Max. coefficient     DIISMaxC        ....  10.000
 Trust-Rad. Augm. Hess. CNVTRAH         .... auto
   Auto Start mean grad. ratio tolernc. ....  1.125000
   Auto Start start iteration           ....    20
   Auto Start num. interpolation iter.  ....    10
   Max. Number of Micro iterations      ....    16
   Max. Number of Macro iterations      .... Maxiter - #DIIS iter
   Number of Davidson start vectors     ....     2
   Converg. threshold I  (grad. norm)   ....   1.000e-05
   Converg. threshold II (energy diff.) ....   1.000e-08
   Grad. Scal. Fac. for Micro threshold ....   0.100
   Minimum threshold for Micro iter.    ....   0.010
   NR start threshold (gradient norm)   ....   0.001
   Initial trust radius                 ....   0.400
   Minimum AH scaling param. (alpha)    ....   1.000
   Maximum AH scaling param. (alpha)    .... 1000.000
   Orbital update algorithm             .... Taylor
   White noise on init. David. guess    .... on
   Maximum white noise                  ....   0.010
   Quad. conv. algorithm                .... NR
 SOSCF                  CNVSOSCF        .... off
 Level Shifting         CNVShift        .... on
   Level shift para.    LevelShift      ....    0.2500
   Turn off err/grad.   ShiftErr        ....    0.0010
 Zerner damping         CNVZerner       .... off
 Static damping         CNVDamp         .... on
   Fraction old density DampFac         ....    0.7000
   Max. Damping (<1)    DampMax         ....    0.9800
   Min. Damping (>=0)   DampMin         ....    0.0000
   Turn off err/grad.   DampErr         ....    0.1000
 Fernandez-Rico         CNVRico         .... off

SCF Procedure:
 Maximum # iterations   MaxIter         ....   250
 SCF integral mode      SCFMode         .... Direct
   Integral package                     .... SHARK and LIBINT hybrid scheme
 Reset frequency        DirectResetFreq ....    20
 Integral Threshold     Thresh          ....  2.500e-11 Eh
 Primitive CutOff       TCut            ....  2.500e-12 Eh

Convergence Tolerance:
 Convergence Check Mode ConvCheckMode   .... Total+1el-Energy
 Convergence forced     ConvForced      .... 0
 Energy Change          TolE            ....  1.000e-08 Eh
 1-El. energy change                    ....  1.000e-05 Eh
 DIIS Error             TolErr          ....  5.000e-07


Diagonalization of the overlap matrix:
Smallest eigenvalue                        ... 7.471e-04
Time for diagonalization                   ...    0.003 sec
Threshold for overlap eigenvalues          ... 1.000e-08
Number of eigenvalues below threshold      ... 0
Time for construction of square roots      ...    0.001 sec
Total time needed                          ...    0.003 sec

Time for model grid setup =    0.117 sec

------------------------------
INITIAL GUESS: MODEL POTENTIAL
------------------------------
Loading Hartree-Fock densities                     ... done
Calculating cut-offs                               ... done
Initializing the effective Hamiltonian             ... done
Setting up the integral package (SHARK)            ... done
Starting the Coulomb interaction                   ... done (   0.1 sec)
Reading the grid                                   ... done
Mapping shells                                     ... done
Starting the XC term evaluation                    ... done (   0.1 sec)
  promolecular density results
     # of electrons  =     52.998232479
     EX              =    -43.886154792
     EC              =     -1.757214990
     EX+EC           =    -45.643369782
Transforming the Hamiltonian                       ... done (   0.0 sec)
Diagonalizing the Hamiltonian                      ... done (   0.0 sec)
Back transforming the eigenvectors                 ... done (   0.0 sec)
Now organizing SCF variables                       ... done
                      ------------------
                      INITIAL GUESS DONE (   0.3 sec)
                      ------------------
-------------------
DFT GRID GENERATION
-------------------

General Integration Accuracy     IntAcc      ... 4.388
Radial Grid Type                 RadialGrid  ... OptM3 with GC (2021)
Angular Grid (max. ang.)         AngularGrid ... 4 (Lebedev-302)
Angular grid pruning method      GridPruning ... 4 (adaptive)
Weight generation scheme         WeightScheme... Becke
Basis function cutoff            BFCut       ... 1.0000e-11
Integration weight cutoff        WCut        ... 1.0000e-14
Angular grids for H and He will be reduced by one unit
Partially contracted basis set               ... off
Rotationally invariant grid construction     ... off

Total number of grid points                  ...    64854
Total number of batches                      ...     1020
Average number of points per batch           ...       63
Average number of grid points per atom       ...     4632
Time for grid setup =    0.480 sec

--------------------
COSX GRID GENERATION
--------------------

GRIDX 1
-------
General Integration Accuracy     IntAcc      ... 3.816
Radial Grid Type                 RadialGrid  ... OptM3 with GC (2021)
Angular Grid (max. ang.)         AngularGrid ... 1 (Lebedev-50)
Angular grid pruning method      GridPruning ... 4 (adaptive)
Weight generation scheme         WeightScheme... Becke
Basis function cutoff            BFCut       ... 1.0000e-11
Integration weight cutoff        WCut        ... 1.0000e-14
Angular grids for H and He will be reduced by one unit
Partially contracted basis set               ... on
Rotationally invariant grid construction     ... off

Total number of grid points                  ...     8299
Total number of batches                      ...      136
Average number of points per batch           ...       61
Average number of grid points per atom       ...      593
UseSFitting                                  ... on

GRIDX 2
-------
General Integration Accuracy     IntAcc      ... 4.020
Radial Grid Type                 RadialGrid  ... OptM3 with GC (2021)
Angular Grid (max. ang.)         AngularGrid ... 2 (Lebedev-110)
Angular grid pruning method      GridPruning ... 4 (adaptive)
Weight generation scheme         WeightScheme... Becke
Basis function cutoff            BFCut       ... 1.0000e-11
Integration weight cutoff        WCut        ... 1.0000e-14
Angular grids for H and He will be reduced by one unit
Partially contracted basis set               ... on
Rotationally invariant grid construction     ... off

Total number of grid points                  ...    18045
Total number of batches                      ...      288
Average number of points per batch           ...       62
Average number of grid points per atom       ...     1289
UseSFitting                                  ... on

GRIDX 3
-------
General Integration Accuracy     IntAcc      ... 4.338
Radial Grid Type                 RadialGrid  ... OptM3 with GC (2021)
Angular Grid (max. ang.)         AngularGrid ... 3 (Lebedev-194)
Angular grid pruning method      GridPruning ... 4 (adaptive)
Weight generation scheme         WeightScheme... Becke
Basis function cutoff            BFCut       ... 1.0000e-11
Integration weight cutoff        WCut        ... 1.0000e-14
Angular grids for H and He will be reduced by one unit
Partially contracted basis set               ... on
Rotationally invariant grid construction     ... off

Total number of grid points                  ...    39648
Total number of batches                      ...      627
Average number of points per batch           ...       63
Average number of grid points per atom       ...     2832
UseSFitting                                  ... on

Time for X-Grid setup             =    0.538 sec

--------------
SCF ITERATIONS
--------------
ITER       Energy         Delta-E        Max-DP      RMS-DP      [F,P]     Damp
               ***  Starting incremental Fock matrix formation  ***
  0   -344.1586107255   0.000000000000 0.05266500  0.00145972  0.1561087 0.7000
  1   -344.2487540464  -0.090143320822 0.03954520  0.00098765  0.0593508 0.7000
                               ***Turning on DIIS***
  2   -344.2857621315  -0.037008085194 0.08215294  0.00167280  0.0232969 0.0000
  3   -344.3505225908  -0.064760459258 0.02885157  0.00085226  0.0534699 0.0000
  4   -344.3644542732  -0.013931682408 0.00976550  0.00034049  0.0100841 0.0000
  5   -344.3656830448  -0.001228771631 0.00605496  0.00020735  0.0071100 0.0000
  6   -344.3662664192  -0.000583374352 0.00448640  0.00011017  0.0041179 0.0000
  7   -344.3664571088  -0.000190689633 0.00167198  0.00005218  0.0020874 0.0000
  8   -344.3665186118  -0.000061502968 0.00149767  0.00003486  0.0012747 0.0000
  9   -344.3665436027  -0.000024990855 0.00149619  0.00004388  0.0006202 0.0000
               *** Restarting incremental Fock matrix formation ***
                                   *** Resetting DIIS ***
 10   -344.3665450597  -0.000001457038 0.00059207  0.00001180  0.0002589 0.0000
 11   -344.3665467572  -0.000001697485 0.00024832  0.00000541  0.0002121 0.0000
 12   -344.3665475278  -0.000000770652 0.00061412  0.00000942  0.0001845 0.0000
 13   -344.3665486974  -0.000001169584 0.00064256  0.00000972  0.0001300 0.0000
 14   -344.3665495154  -0.000000817964 0.00063391  0.00000946  0.0000755 0.0000
 15   -344.3665498854  -0.000000370052 0.00010915  0.00000172  0.0000295 0.0000
 16   -344.3665499118  -0.000000026332 0.00008970  0.00000138  0.0000143 0.0000
 17   -344.3665499192  -0.000000007393 0.00002622  0.00000047  0.0000086 0.0000
 18   -344.3665499236  -0.000000004403 0.00002223  0.00000037  0.0000045 0.0000
 19   -344.3665499249  -0.000000001347 0.00001580  0.00000029  0.0000044 0.0000
 20   -344.3665499237   0.000000001189 0.00000509  0.00000014  0.0000041 0.0000
 21   -344.3665499231   0.000000000589 0.00000539  0.00000017  0.0000021 0.0000
 22   -344.3665499251  -0.000000001979 0.00000315  0.00000009  0.0000011 0.0000
 23   -344.3665499231   0.000000002044 0.00000227  0.00000006  0.0000011 0.0000
                 **** Energy Check signals convergence ****

               *****************************************************
               *                     SUCCESS                       *
               *           SCF CONVERGED AFTER  24 CYCLES          *
               *****************************************************

Old exchange energy                            =    -11.189007814 Eh
New exchange energy                            =    -11.188989811 Eh
Exchange energy change after final integration =      0.000018003 Eh
Total energy after final integration           =   -344.366531922 Eh
Final COS-X integration done in                =     4.877 sec

----------------
TOTAL SCF ENERGY
----------------

Total Energy       :         -344.36653192 Eh           -9370.68973 eV

Components:
Nuclear Repulsion  :          301.22496384 Eh            8196.74798 eV
Electronic Energy  :         -645.59149576 Eh          -17567.43771 eV
One Electron Energy:        -1065.66703294 Eh          -28998.27421 eV
Two Electron Energy:          420.07553718 Eh           11430.83650 eV
Max COSX asymmetry :            0.00000068 Eh               0.00002 eV

Virial components:
Potential Energy   :         -686.01722916 Eh          -18667.47784 eV
Kinetic Energy     :          341.65069724 Eh            9296.78811 eV
Virial Ratio       :            2.00794916


DFT components:
N(Alpha)           :       27.000007766496 electrons
N(Beta)            :       26.000008056871 electrons
N(Total)           :       53.000015823367 electrons
E(X)               :      -33.488464085546 Eh       
E(C)               :       -1.772607991351 Eh       
E(XC)              :      -35.261072076897 Eh       
DFET-embed. en.    :        0.000000000000 Eh       

---------------
SCF CONVERGENCE
---------------

  Last Energy change         ...   -1.3154e-09  Tolerance :   1.0000e-08
  Last MAX-Density change    ...    0.0000e+00  Tolerance :   1.0000e-07
  Last RMS-Density change    ...    0.0000e+00  Tolerance :   5.0000e-09
  Last DIIS Error            ...    1.0506e-06  Tolerance :   5.0000e-07

             **** THE GBW FILE WAS UPDATED (14_2_orca.gbw) ****
             **** DENSITY 14_2_orca.scfp WAS UPDATED ****
             **** ENERGY FILE WAS UPDATED (14_2_orca.en.tmp) ****
----------------------
UHF SPIN CONTAMINATION
----------------------

Warning: in a DFT calculation there is little theoretical justification to 
         calculate <S**2> as in Hartree-Fock theory. We will do it anyways
         but you should keep in mind that the values have only limited relevance

Expectation value of <S**2>     :     0.753456
Ideal value S*(S+1) for S=0.5   :     0.750000
Deviation                       :     0.003456

             **** THE GBW FILE WAS UPDATED (14_2_orca.gbw) ****
             **** DENSITY 14_2_orca.scfp WAS UPDATED ****
----------------
ORBITAL ENERGIES
----------------
                 SPIN UP ORBITALS
  NO   OCC          E(Eh)            E(eV) 
   0   1.0000     -19.240954      -523.5730 
   1   1.0000     -19.195480      -522.3356 
   2   1.0000     -10.299658      -280.2679 
   3   1.0000     -10.295193      -280.1464 
   4   1.0000     -10.250840      -278.9395 
   5   1.0000     -10.248594      -278.8784 
   6   1.0000     -10.245042      -278.7818 
   7   1.0000      -1.125325       -30.6217 
   8   1.0000      -0.955708       -26.0062 
   9   1.0000      -0.846133       -23.0244 
  10   1.0000      -0.749234       -20.3877 
  11   1.0000      -0.689259       -18.7557 
  12   1.0000      -0.605565       -16.4783 
  13   1.0000      -0.577494       -15.7144 
  14   1.0000      -0.564852       -15.3704 
  15   1.0000      -0.483127       -13.1465 
  16   1.0000      -0.467853       -12.7309 
  17   1.0000      -0.441549       -12.0152 
  18   1.0000      -0.423755       -11.5309 
  19   1.0000      -0.420174       -11.4335 
  20   1.0000      -0.404955       -11.0194 
  21   1.0000      -0.379976       -10.3397 
  22   1.0000      -0.367022        -9.9872 
  23   1.0000      -0.330892        -9.0040 
  24   1.0000      -0.290500        -7.9049 
  25   1.0000      -0.279568        -7.6074 
  26   1.0000      -0.247573        -6.7368 
  27   0.0000      -0.010270        -0.2794 
  28   0.0000       0.068543         1.8652 
  29   0.0000       0.095212         2.5908 
  30   0.0000       0.106288         2.8922 
  31   0.0000       0.109878         2.9899 
  32   0.0000       0.127702         3.4750 
  33   0.0000       0.139220         3.7884 
  34   0.0000       0.144232         3.9248 
  35   0.0000       0.148125         4.0307 
  36   0.0000       0.172294         4.6884 
  37   0.0000       0.192777         5.2457 
  38   0.0000       0.214902         5.8478 
  39   0.0000       0.301748         8.2110 
  40   0.0000       0.315594         8.5878 
  41   0.0000       0.391785        10.6610 
  42   0.0000       0.396479        10.7888 
  43   0.0000       0.455591        12.3973 
  44   0.0000       0.469892        12.7864 
  45   0.0000       0.477651        12.9976 
  46   0.0000       0.501842        13.6558 
  47   0.0000       0.518017        14.0960 
  48   0.0000       0.548867        14.9354 
  49   0.0000       0.556867        15.1531 
  50   0.0000       0.563795        15.3416 
  51   0.0000       0.597298        16.2533 
  52   0.0000       0.618639        16.8340 
  53   0.0000       0.636307        17.3148 
  54   0.0000       0.645633        17.5686 
  55   0.0000       0.658210        17.9108 
  56   0.0000       0.665832        18.1182 
  57   0.0000       0.678117        18.4525 
  58   0.0000       0.681038        18.5320 
  59   0.0000       0.687756        18.7148 
  60   0.0000       0.707755        19.2590 
  61   0.0000       0.730205        19.8699 
  62   0.0000       0.762523        20.7493 
  63   0.0000       0.779688        21.2164 
  64   0.0000       0.834574        22.7099 
  65   0.0000       0.900422        24.5017 
  66   0.0000       0.942922        25.6582 
  67   0.0000       0.974532        26.5184 
  68   0.0000       0.998999        27.1841 
  69   0.0000       1.014121        27.5956 
  70   0.0000       1.058155        28.7939 
  71   0.0000       1.071243        29.1500 
  72   0.0000       1.107849        30.1461 
  73   0.0000       1.123931        30.5837 
  74   0.0000       1.204092        32.7650 
  75   0.0000       1.218516        33.1575 
  76   0.0000       1.286519        35.0080 
  77   0.0000       1.350393        36.7461 
  78   0.0000       1.453643        39.5556 
  79   0.0000       1.499921        40.8149 
  80   0.0000       1.512137        41.1473 
  81   0.0000       1.524163        41.4746 
  82   0.0000       1.538236        41.8575 
  83   0.0000       1.562478        42.5172 
  84   0.0000       1.604285        43.6548 
  85   0.0000       1.631301        44.3900 
  86   0.0000       1.678697        45.6797 
  87   0.0000       1.690987        46.0141 
  88   0.0000       1.708894        46.5014 
  89   0.0000       1.749146        47.5967 
  90   0.0000       1.767395        48.0933 
  91   0.0000       1.793123        48.7933 
  92   0.0000       1.810643        49.2701 
  93   0.0000       1.848837        50.3094 
  94   0.0000       1.866274        50.7839 
  95   0.0000       1.883171        51.2437 
  96   0.0000       1.929979        52.5174 
  97   0.0000       1.955972        53.2247 
  98   0.0000       1.992233        54.2114 
  99   0.0000       2.021285        55.0020 
 100   0.0000       2.043240        55.5994 
 101   0.0000       2.073194        56.4145 
 102   0.0000       2.116521        57.5935 
 103   0.0000       2.156107        58.6707 
 104   0.0000       2.179976        59.3202 
 105   0.0000       2.231315        60.7172 
 106   0.0000       2.247793        61.1656 
 107   0.0000       2.265867        61.6574 
 108   0.0000       2.292915        62.3934 
 109   0.0000       2.382339        64.8267 
 110   0.0000       2.411516        65.6207 
 111   0.0000       2.516442        68.4759 
 112   0.0000       2.532171        68.9039 
 113   0.0000       2.573207        70.0205 
 114   0.0000       2.641715        71.8847 
 115   0.0000       2.686974        73.1163 
 116   0.0000       2.719964        74.0140 
 117   0.0000       2.739356        74.5417 
 118   0.0000       2.771890        75.4270 
 119   0.0000       2.784791        75.7780 
 120   0.0000       2.825081        76.8744 
 121   0.0000       2.855332        77.6975 
 122   0.0000       2.903475        79.0076 
 123   0.0000       2.950908        80.2983 
 124   0.0000       3.021912        82.2304 
 125   0.0000       3.030945        82.4762 
 126   0.0000       3.070293        83.5469 
 127   0.0000       3.108673        84.5913 
 128   0.0000       3.143705        85.5446 
 129   0.0000       3.335070        90.7519 
 130   0.0000       3.399956        92.5175 
 131   0.0000       3.457881        94.0937 
 132   0.0000       3.760558       102.3300 

                 SPIN DOWN ORBITALS
  NO   OCC          E(Eh)            E(eV) 
   0   1.0000     -19.234826      -523.4062 
   1   1.0000     -19.170669      -521.6604 
   2   1.0000     -10.299554      -280.2651 
   3   1.0000     -10.295406      -280.1523 
   4   1.0000     -10.250825      -278.9391 
   5   1.0000     -10.248122      -278.8656 
   6   1.0000     -10.245143      -278.7845 
   7   1.0000      -1.117360       -30.4049 
   8   1.0000      -0.892972       -24.2990 
   9   1.0000      -0.842318       -22.9206 
  10   1.0000      -0.749040       -20.3824 
  11   1.0000      -0.685412       -18.6510 
  12   1.0000      -0.604671       -16.4539 
  13   1.0000      -0.576265       -15.6810 
  14   1.0000      -0.560097       -15.2410 
  15   1.0000      -0.474868       -12.9218 
  16   1.0000      -0.466384       -12.6910 
  17   1.0000      -0.433568       -11.7980 
  18   1.0000      -0.421195       -11.4613 
  19   1.0000      -0.413191       -11.2435 
  20   1.0000      -0.389684       -10.6038 
  21   1.0000      -0.377610       -10.2753 
  22   1.0000      -0.340069        -9.2537 
  23   1.0000      -0.302272        -8.2252 
  24   1.0000      -0.265404        -7.2220 
  25   1.0000      -0.256346        -6.9755 
  26   0.0000      -0.053259        -1.4492 
  27   0.0000      -0.006543        -0.1780 
  28   0.0000       0.070866         1.9284 
  29   0.0000       0.096782         2.6336 
  30   0.0000       0.107313         2.9201 
  31   0.0000       0.111071         3.0224 
  32   0.0000       0.129595         3.5264 
  33   0.0000       0.139637         3.7997 
  34   0.0000       0.145594         3.9618 
  35   0.0000       0.149174         4.0592 
  36   0.0000       0.176205         4.7948 
  37   0.0000       0.194746         5.2993 
  38   0.0000       0.215762         5.8712 
  39   0.0000       0.302325         8.2267 
  40   0.0000       0.315863         8.5951 
  41   0.0000       0.391853        10.6629 
  42   0.0000       0.396963        10.8019 
  43   0.0000       0.456595        12.4246 
  44   0.0000       0.470641        12.8068 
  45   0.0000       0.478245        13.0137 
  46   0.0000       0.502807        13.6821 
  47   0.0000       0.518626        14.1125 
  48   0.0000       0.550728        14.9861 
  49   0.0000       0.559585        15.2271 
  50   0.0000       0.564907        15.3719 
  51   0.0000       0.597649        16.2629 
  52   0.0000       0.619327        16.8527 
  53   0.0000       0.637838        17.3564 
  54   0.0000       0.647376        17.6160 
  55   0.0000       0.665292        18.1035 
  56   0.0000       0.667337        18.1592 
  57   0.0000       0.678915        18.4742 
  58   0.0000       0.681888        18.5551 
  59   0.0000       0.688454        18.7338 
  60   0.0000       0.708282        19.2733 
  61   0.0000       0.730829        19.8869 
  62   0.0000       0.763255        20.7692 
  63   0.0000       0.780404        21.2359 
  64   0.0000       0.835051        22.7229 
  65   0.0000       0.906180        24.6584 
  66   0.0000       0.953370        25.9425 
  67   0.0000       0.981897        26.7188 
  68   0.0000       1.014321        27.6011 
  69   0.0000       1.031770        28.0759 
  70   0.0000       1.075109        29.2552 
  71   0.0000       1.097589        29.8669 
  72   0.0000       1.116795        30.3895 
  73   0.0000       1.141868        31.0718 
  74   0.0000       1.213095        33.0100 
  75   0.0000       1.220898        33.2223 
  76   0.0000       1.294705        35.2307 
  77   0.0000       1.351056        36.7641 
  78   0.0000       1.454166        39.5699 
  79   0.0000       1.501482        40.8574 
  80   0.0000       1.523067        41.4448 
  81   0.0000       1.526351        41.5341 
  82   0.0000       1.543685        42.0058 
  83   0.0000       1.566040        42.6141 
  84   0.0000       1.608727        43.7757 
  85   0.0000       1.632393        44.4197 
  86   0.0000       1.682652        45.7873 
  87   0.0000       1.691416        46.0258 
  88   0.0000       1.709559        46.5195 
  89   0.0000       1.750012        47.6202 
  90   0.0000       1.768462        48.1223 
  91   0.0000       1.797175        48.9036 
  92   0.0000       1.811775        49.3009 
  93   0.0000       1.849805        50.3358 
  94   0.0000       1.867975        50.8302 
  95   0.0000       1.885255        51.3004 
  96   0.0000       1.930664        52.5360 
  97   0.0000       1.957162        53.2571 
  98   0.0000       1.992693        54.2239 
  99   0.0000       2.022006        55.0216 
 100   0.0000       2.044190        55.6252 
 101   0.0000       2.074435        56.4482 
 102   0.0000       2.118471        57.6465 
 103   0.0000       2.156414        58.6790 
 104   0.0000       2.180836        59.3436 
 105   0.0000       2.232879        60.7597 
 106   0.0000       2.258420        61.4547 
 107   0.0000       2.271001        61.7971 
 108   0.0000       2.294830        62.4455 
 109   0.0000       2.382710        64.8368 
 110   0.0000       2.412140        65.6377 
 111   0.0000       2.517318        68.4997 
 112   0.0000       2.532911        68.9240 
 113   0.0000       2.575882        70.0933 
 114   0.0000       2.645543        71.9889 
 115   0.0000       2.718367        73.9705 
 116   0.0000       2.748824        74.7993 
 117   0.0000       2.757733        75.0417 
 118   0.0000       2.784217        75.7624 
 119   0.0000       2.789955        75.9185 
 120   0.0000       2.854284        77.6690 
 121   0.0000       2.865643        77.9781 
 122   0.0000       2.920467        79.4700 
 123   0.0000       2.975805        80.9758 
 124   0.0000       3.033483        82.5453 
 125   0.0000       3.070728        83.5588 
 126   0.0000       3.078649        83.7743 
 127   0.0000       3.119874        84.8961 
 128   0.0000       3.146424        85.6185 
 129   0.0000       3.341326        90.9221 
 130   0.0000       3.404751        92.6480 
 131   0.0000       3.460871        94.1751 
 132   0.0000       3.782283       102.9212 

                    ********************************
                    * MULLIKEN POPULATION ANALYSIS *
                    ********************************

--------------------------------------------
MULLIKEN ATOMIC CHARGES AND SPIN POPULATIONS
--------------------------------------------
   0 O :   -0.264929    0.876377
   1 O :   -0.298757    0.129858
   2 C :    0.032243   -0.010819
   3 C :    0.058984    0.004196
   4 C :    0.030021   -0.014104
   5 C :   -0.121787    0.031611
   6 C :    0.085300   -0.000592
   7 H :    0.158698   -0.021725
   8 H :    0.064834    0.002582
   9 H :    0.045247    0.003126
  10 H :    0.036532    0.000903
  11 H :    0.031344   -0.001615
  12 H :    0.068247   -0.000030
  13 H :    0.074023    0.000231
Sum of atomic charges         :    0.0000000
Sum of atomic spin populations:    1.0000000

-----------------------------------------------------
MULLIKEN REDUCED ORBITAL CHARGES AND SPIN POPULATIONS
-----------------------------------------------------
CHARGE
  0 O s       :     3.859231  s :     3.859231
      pz      :     1.497629  p :     4.398492
      px      :     1.185313
      py      :     1.715551
      dz2     :     0.000834  d :     0.007206
      dxz     :     0.001516
      dyz     :     0.002740
      dx2y2   :     0.001064
      dxy     :     0.001051
  1 O s       :     3.878975  s :     3.878975
      pz      :     1.351711  p :     4.399161
      px      :     1.594004
      py      :     1.453446
      dz2     :     0.005754  d :     0.020622
      dxz     :     0.002862
      dyz     :     0.005249
      dx2y2   :     0.003068
      dxy     :     0.003688
  2 C s       :     3.195147  s :     3.195147
      pz      :     0.760186  p :     2.701050
      px      :     0.997377
      py      :     0.943487
      dz2     :     0.021204  d :     0.071560
      dxz     :     0.015997
      dyz     :     0.018120
      dx2y2   :     0.007191
      dxy     :     0.009047
  3 C s       :     3.182315  s :     3.182315
      pz      :     0.954492  p :     2.688125
      px      :     0.921802
      py      :     0.811831
      dz2     :     0.008574  d :     0.070575
      dxz     :     0.011564
      dyz     :     0.013201
      dx2y2   :     0.017856
      dxy     :     0.019380
  4 C s       :     3.158212  s :     3.158212
      pz      :     0.980034  p :     2.777785
      px      :     0.837358
      py      :     0.960393
      dz2     :     0.006077  d :     0.033982
      dxz     :     0.007857
      dyz     :     0.004804
      dx2y2   :     0.007583
      dxy     :     0.007661
  5 C s       :     3.220784  s :     3.220784
      pz      :     0.976598  p :     2.865422
      px      :     0.958015
      py      :     0.930810
      dz2     :     0.007989  d :     0.035582
      dxz     :     0.006264
      dyz     :     0.005123
      dx2y2   :     0.007332
      dxy     :     0.008873
  6 C s       :     2.953136  s :     2.953136
      pz      :     0.974123  p :     2.927100
      px      :     0.933408
      py      :     1.019568
      dz2     :     0.007642  d :     0.034464
      dxz     :     0.007275
      dyz     :     0.005346
      dx2y2   :     0.007163
      dxy     :     0.007037
  7 H s       :     0.773744  s :     0.773744
      pz      :     0.025388  p :     0.067557
      px      :     0.015747
      py      :     0.026423
  8 H s       :     0.912565  s :     0.912565
      pz      :     0.002546  p :     0.022601
      px      :     0.015021
      py      :     0.005033
  9 H s       :     0.932467  s :     0.932467
      pz      :     0.007081  p :     0.022286
      px      :     0.003374
      py      :     0.011830
 10 H s       :     0.939482  s :     0.939482
      pz      :     0.007631  p :     0.023986
      px      :     0.011459
      py      :     0.004896
 11 H s       :     0.943794  s :     0.943794
      pz      :     0.004935  p :     0.024862
      px      :     0.009942
      py      :     0.009985
 12 H s       :     0.908431  s :     0.908431
      pz      :     0.012980  p :     0.023322
      px      :     0.004620
      py      :     0.005722
 13 H s       :     0.902750  s :     0.902750
      pz      :     0.004382  p :     0.023227
      px      :     0.005708
      py      :     0.013136

SPIN
  0 O s       :     0.011924  s :     0.011924
      pz      :     0.140821  p :     0.864155
      px      :     0.705676
      py      :     0.017658
      dz2     :    -0.000048  d :     0.000298
      dxz     :     0.000218
      dyz     :     0.000037
      dx2y2   :    -0.000084
      dxy     :     0.000175
  1 O s       :     0.012138  s :     0.012138
      pz      :     0.021382  p :     0.117090
      px      :     0.080589
      py      :     0.015119
      dz2     :    -0.000142  d :     0.000630
      dxz     :     0.000425
      dyz     :     0.000013
      dx2y2   :     0.000275
      dxy     :     0.000060
  2 C s       :    -0.001473  s :    -0.001473
      pz      :    -0.006350  p :    -0.010169
      px      :    -0.001877
      py      :    -0.001942
      dz2     :     0.000143  d :     0.000823
      dxz     :     0.000552
      dyz     :    -0.000012
      dx2y2   :     0.000017
      dxy     :     0.000123
  3 C s       :     0.000431  s :     0.000431
      pz      :     0.001475  p :     0.002818
      px      :     0.000503
      py      :     0.000839
      dz2     :     0.000026  d :     0.000948
      dxz     :     0.000010
      dyz     :    -0.000032
      dx2y2   :     0.001063
      dxy     :    -0.000119
  4 C s       :    -0.002484  s :    -0.002484
      pz      :    -0.007731  p :    -0.011933
      px      :     0.002724
      py      :    -0.006926
      dz2     :     0.000082  d :     0.000313
      dxz     :     0.000061
      dyz     :     0.000024
      dx2y2   :     0.000087
      dxy     :     0.000059
  5 C s       :     0.004766  s :     0.004766
      pz      :     0.012766  p :     0.026974
      px      :     0.003815
      py      :     0.010392
      dz2     :    -0.000045  d :    -0.000128
      dxz     :    -0.000022
      dyz     :    -0.000044
      dx2y2   :    -0.000036
      dxy     :     0.000018
  6 C s       :    -0.000700  s :    -0.000700
      pz      :     0.000049  p :     0.000048
      px      :    -0.000626
      py      :     0.000625
      dz2     :    -0.000011  d :     0.000060
      dxz     :     0.000028
      dyz     :     0.000004
      dx2y2   :    -0.000007
      dxy     :     0.000046
  7 H s       :    -0.027263  s :    -0.027263
      pz      :     0.001183  p :     0.005538
      px      :     0.004601
      py      :    -0.000246
  8 H s       :     0.002666  s :     0.002666
      pz      :    -0.000045  p :    -0.000084
      px      :    -0.000029
      py      :    -0.000009
  9 H s       :     0.003168  s :     0.003168
      pz      :    -0.000027  p :    -0.000042
      px      :    -0.000013
      py      :    -0.000002
 10 H s       :     0.000955  s :     0.000955
      pz      :    -0.000005  p :    -0.000052
      px      :    -0.000005
      py      :    -0.000042
 11 H s       :    -0.001819  s :    -0.001819
      pz      :     0.000103  p :     0.000204
      px      :     0.000043
      py      :     0.000059
 12 H s       :    -0.000050  s :    -0.000050
      pz      :    -0.000002  p :     0.000019
      px      :     0.000018
      py      :     0.000004
 13 H s       :     0.000239  s :     0.000239
      pz      :    -0.000001  p :    -0.000009
      px      :    -0.000005
      py      :    -0.000003


                     *******************************
                     * LOEWDIN POPULATION ANALYSIS *
                     *******************************

-------------------------------------------
LOEWDIN ATOMIC CHARGES AND SPIN POPULATIONS
-------------------------------------------
   0 O :   -0.170812    0.832937
   1 O :   -0.101502    0.145153
   2 C :    0.067151   -0.005494
   3 C :    0.050719    0.004420
   4 C :   -0.053385   -0.008705
   5 C :    0.001465    0.023922
   6 C :   -0.045625    0.000630
   7 H :    0.040409    0.003483
   8 H :    0.030119    0.001357
   9 H :    0.025982    0.001763
  10 H :    0.034125    0.000345
  11 H :    0.025444    0.000009
  12 H :    0.046193    0.000080
  13 H :    0.049715    0.000100

----------------------------------------------------
LOEWDIN REDUCED ORBITAL CHARGES AND SPIN POPULATIONS
----------------------------------------------------
CHARGE
  0 O s       :     3.681421  s :     3.681421
      pz      :     1.536913  p :     4.476344
      px      :     1.205526
      py      :     1.733905
      dz2     :     0.000912  d :     0.013047
      dxz     :     0.002867
      dyz     :     0.005783
      dx2y2   :     0.001606
      dxy     :     0.001879
  1 O s       :     3.567407  s :     3.567407
      pz      :     1.407553  p :     4.499790
      px      :     1.582144
      py      :     1.510094
      dz2     :     0.009255  d :     0.034304
      dxz     :     0.004460
      dyz     :     0.009657
      dx2y2   :     0.004764
      dxy     :     0.006169
  2 C s       :     2.860062  s :     2.860062
      pz      :     0.858164  p :     2.915153
      px      :     1.055901
      py      :     1.001088
      dz2     :     0.042793  d :     0.157634
      dxz     :     0.037889
      dyz     :     0.040676
      dx2y2   :     0.014818
      dxy     :     0.021459
  3 C s       :     2.862267  s :     2.862267
      pz      :     1.018648  p :     2.930762
      px      :     0.990746
      py      :     0.921367
      dz2     :     0.018633  d :     0.156252
      dxz     :     0.026349
      dyz     :     0.029196
      dx2y2   :     0.041771
      dxy     :     0.040303
  4 C s       :     2.880410  s :     2.880410
      pz      :     1.030905  p :     3.084674
      px      :     1.016878
      py      :     1.036892
      dz2     :     0.013247  d :     0.088301
      dxz     :     0.020439
      dyz     :     0.013925
      dx2y2   :     0.020885
      dxy     :     0.019805
  5 C s       :     2.879452  s :     2.879452
      pz      :     1.000573  p :     3.031150
      px      :     1.003519
      py      :     1.027058
      dz2     :     0.016373  d :     0.087933
      dxz     :     0.015696
      dyz     :     0.014576
      dx2y2   :     0.019314
      dxy     :     0.021974
  6 C s       :     2.844124  s :     2.844124
      pz      :     1.038474  p :     3.112857
      px      :     1.017213
      py      :     1.057170
      dz2     :     0.019780  d :     0.088644
      dxz     :     0.019263
      dyz     :     0.013135
      dx2y2   :     0.018812
      dxy     :     0.017654
  7 H s       :     0.775298  s :     0.775298
      pz      :     0.071931  p :     0.184293
      px      :     0.041672
      py      :     0.070690
  8 H s       :     0.897885  s :     0.897885
      pz      :     0.010738  p :     0.071996
      px      :     0.044099
      py      :     0.017159
  9 H s       :     0.904354  s :     0.904354
      pz      :     0.021931  p :     0.069665
      px      :     0.013279
      py      :     0.034454
 10 H s       :     0.895598  s :     0.895598
      pz      :     0.021876  p :     0.070277
      px      :     0.033863
      py      :     0.014538
 11 H s       :     0.899608  s :     0.899608
      pz      :     0.016213  p :     0.074948
      px      :     0.030567
      py      :     0.028168
 12 H s       :     0.886751  s :     0.886751
      pz      :     0.037369  p :     0.067056
      px      :     0.013510
      py      :     0.016177
 13 H s       :     0.882440  s :     0.882440
      pz      :     0.012674  p :     0.067845
      px      :     0.017473
      py      :     0.037698

SPIN
  0 O s       :     0.010813  s :     0.010813
      pz      :     0.132411  p :     0.822013
      px      :     0.674670
      py      :     0.014932
      dz2     :    -0.000036  d :     0.000111
      dxz     :     0.000269
      dyz     :    -0.000255
      dx2y2   :     0.000066
      dxy     :     0.000067
  1 O s       :     0.017689  s :     0.017689
      pz      :     0.022315  p :     0.126632
      px      :     0.090845
      py      :     0.013472
      dz2     :    -0.000103  d :     0.000832
      dxz     :     0.000496
      dyz     :     0.000010
      dx2y2   :     0.000370
      dxy     :     0.000058
  2 C s       :    -0.000856  s :    -0.000856
      pz      :    -0.003744  p :    -0.006835
      px      :    -0.000769
      py      :    -0.002321
      dz2     :     0.000552  d :     0.002196
      dxz     :     0.001411
      dyz     :    -0.000066
      dx2y2   :     0.000073
      dxy     :     0.000226
  3 C s       :    -0.000096  s :    -0.000096
      pz      :     0.001674  p :     0.002684
      px      :     0.000390
      py      :     0.000620
      dz2     :    -0.000011  d :     0.001831
      dxz     :     0.000023
      dyz     :    -0.000003
      dx2y2   :     0.001955
      dxy     :    -0.000133
  4 C s       :     0.000193  s :     0.000193
      pz      :    -0.005610  p :    -0.009708
      px      :     0.001676
      py      :    -0.005774
      dz2     :     0.000171  d :     0.000810
      dxz     :     0.000119
      dyz     :     0.000041
      dx2y2   :     0.000333
      dxy     :     0.000146
  5 C s       :     0.001015  s :     0.001015
      pz      :     0.011649  p :     0.023200
      px      :     0.003758
      py      :     0.007793
      dz2     :    -0.000135  d :    -0.000292
      dxz     :    -0.000027
      dyz     :    -0.000054
      dx2y2   :    -0.000084
      dxy     :     0.000008
  6 C s       :     0.000090  s :     0.000090
      pz      :     0.000122  p :     0.000385
      px      :    -0.000149
      py      :     0.000412
      dz2     :    -0.000012  d :     0.000155
      dxz     :     0.000080
      dyz     :     0.000011
      dx2y2   :    -0.000015
      dxy     :     0.000091
  7 H s       :    -0.018453  s :    -0.018453
      pz      :     0.005892  p :     0.021936
      px      :     0.014833
      py      :     0.001211
  8 H s       :     0.001628  s :     0.001628
      pz      :    -0.000138  p :    -0.000271
      px      :    -0.000049
      py      :    -0.000083
  9 H s       :     0.001814  s :     0.001814
      pz      :     0.000044  p :    -0.000051
      px      :     0.000006
      py      :    -0.000101
 10 H s       :     0.000555  s :     0.000555
      pz      :    -0.000105  p :    -0.000210
      px      :     0.000034
      py      :    -0.000139
 11 H s       :    -0.000774  s :    -0.000774
      pz      :     0.000355  p :     0.000782
      px      :     0.000170
      py      :     0.000258
 12 H s       :     0.000009  s :     0.000009
      pz      :     0.000003  p :     0.000071
      px      :     0.000050
      py      :     0.000019
 13 H s       :     0.000111  s :     0.000111
      pz      :     0.000005  p :    -0.000011
      px      :    -0.000015
      py      :    -0.000001


                      *****************************
                      * MAYER POPULATION ANALYSIS *
                      *****************************

  NA   - Mulliken gross atomic population
  ZA   - Total nuclear charge
  QA   - Mulliken gross atomic charge
  VA   - Mayer's total valence
  BVA  - Mayer's bonded valence
  FA   - Mayer's free valence

  ATOM       NA         ZA         QA         VA         BVA        FA
  0 O      8.2649     8.0000    -0.2649     2.0122     1.2891     0.7231
  1 O      8.2988     8.0000    -0.2988     2.0758     2.0568     0.0189
  2 C      5.9678     6.0000     0.0322     3.9504     3.9503     0.0001
  3 C      5.9410     6.0000     0.0590     3.9159     3.9159     0.0001
  4 C      5.9700     6.0000     0.0300     3.7850     3.7848     0.0002
  5 C      6.1218     6.0000    -0.1218     3.9679     3.9672     0.0007
  6 C      5.9147     6.0000     0.0853     3.8193     3.8193     0.0000
  7 H      0.8413     1.0000     0.1587     1.0160     1.0149     0.0011
  8 H      0.9352     1.0000     0.0648     1.0174     1.0174     0.0000
  9 H      0.9548     1.0000     0.0452     0.9914     0.9914     0.0000
 10 H      0.9635     1.0000     0.0365     0.9887     0.9887     0.0000
 11 H      0.9687     1.0000     0.0313     0.9912     0.9912     0.0000
 12 H      0.9318     1.0000     0.0682     0.9783     0.9783     0.0000
 13 H      0.9260     1.0000     0.0740     0.9818     0.9818     0.0000

  Mayer bond orders larger than 0.100000
B(  0-O ,  1-O ) :   0.1936 B(  0-O ,  7-H ) :   0.9958 B(  1-O ,  2-C ) :   0.9040 
B(  1-O ,  3-C ) :   0.8921 B(  2-C ,  3-C ) :   1.0220 B(  2-C ,  6-C ) :   1.0018 
B(  2-C ,  8-H ) :   0.9575 B(  3-C ,  4-C ) :   0.9763 B(  3-C ,  9-H ) :   0.9724 
B(  4-C ,  5-C ) :   1.8255 B(  4-C , 10-H ) :   0.9960 B(  5-C ,  6-C ) :   1.0143 
B(  5-C , 11-H ) :   0.9773 B(  6-C , 12-H ) :   0.9284 B(  6-C , 13-H ) :   0.9272 



------------------
HIRSHFELD ANALYSIS
------------------

Total integrated alpha density =     27.000007766
Total integrated beta density  =     26.000008056

  ATOM     CHARGE      SPIN    
   0 O   -0.265159    0.804911
   1 O   -0.125461    0.145002
   2 C    0.056744   -0.000473
   3 C    0.043373    0.006753
   4 C   -0.049226   -0.003526
   5 C   -0.021056    0.019751
   6 C   -0.037672    0.001954
   7 H    0.129207    0.021162
   8 H    0.051075    0.001439
   9 H    0.049962    0.001314
  10 H    0.044119   -0.000084
  11 H    0.041668    0.001282
  12 H    0.037922    0.000326
  13 H    0.044489    0.000189

  TOTAL  -0.000016    1.000000

-------
TIMINGS
-------

Total SCF time: 0 days 0 hours 1 min 3 sec 

Total time                  ....      63.498 sec
Sum of individual times     ....      63.340 sec  ( 99.8%)

Fock matrix formation       ....      61.500 sec  ( 96.9%)
  Split-RI-J                ....       3.871 sec  (  6.3% of F)
  Chain of spheres X        ....      42.300 sec  ( 68.8% of F)
  XC integration            ....      15.328 sec  ( 24.9% of F)
    Basis function eval.    ....       4.581 sec  ( 29.9% of XC)
    Density eval.           ....       4.252 sec  ( 27.7% of XC)
    XC-Functional eval.     ....       1.585 sec  ( 10.3% of XC)
    XC-Potential eval.      ....       4.544 sec  ( 29.6% of XC)
Diagonalization             ....       0.104 sec  (  0.2%)
Density matrix formation    ....       0.008 sec  (  0.0%)
Population analysis         ....       0.352 sec  (  0.6%)
Initial guess               ....       0.213 sec  (  0.3%)
Orbital Transformation      ....       0.000 sec  (  0.0%)
Orbital Orthonormalization  ....       0.000 sec  (  0.0%)
DIIS solution               ....       0.028 sec  (  0.0%)
Grid generation             ....       1.135 sec  (  1.8%)

Maximum memory used throughout the entire SCF-calculation: 63.5 MB


-------------------------------------------------------------------------------
                          DFT DISPERSION CORRECTION                            
                                                                               
                              DFTD3 V3.1  Rev 1                                
                          USING Becke-Johnson damping                          
-------------------------------------------------------------------------------
The PBE0 functional is recognized
Active option DFTDOPT                   ...         4   

molecular C6(AA) [au] = 1742.080488 


            DFT-D V3
 parameters
 s6 scaling factor         :     1.0000 
 a1 scaling factor         :     0.4145 
 s8 scaling factor         :     1.2177 
 a2 scaling factor         :     4.8593 
 ad hoc parameters k1-k3   :    16.0000     1.3333    -4.0000 

 Edisp/kcal,au: -6.154112388998  -0.009807201304 
 E6   /kcal   :  -3.914630489 
 E8   /kcal   :  -2.239481900 
 % E8         :  36.390006526 

-------------------------   ----------------
Dispersion correction           -0.009807201
-------------------------   ----------------


-------------------------   --------------------
FINAL SINGLE POINT ENERGY      -344.376339123052
-------------------------   --------------------

------------------------------------------------------------------------------
                         ORCA SCF GRADIENT CALCULATION
------------------------------------------------------------------------------

 ... reading COSX grid (gridx3)
Gradient of the Kohn-Sham DFT energy:
Kohn-Sham wavefunction type      ... UKS
Hartree-Fock exchange scaling    ...    0.250
Number of operators              ...    2
Number of atoms                  ...   14
Basis set dimensions             ...  133
Integral neglect threshold       ... 2.5e-11
Integral primitive cutoff        ... 2.5e-12
SHARK Integral package           ... ON

Nuc. rep. gradient       (SHARK) ... done (  0.0 sec)
HCore & Overlap gradient (SHARK) ... done (  0.1 sec)
RI-J gradient            (SHARK) ... done (  0.6 sec)
COSX-gradient                    ... done (  6.7 sec)
Exchange-correlation gradient    ... done
Dispersion correction            ... done

------------------
CARTESIAN GRADIENT
------------------

   1   O   :    0.023571254   -0.002973796   -0.006683799
   2   O   :    0.001397639   -0.009746260    0.004632016
   3   C   :   -0.002596053    0.008807442   -0.008741706
   4   C   :   -0.002707235    0.006688739   -0.003179448
   5   C   :   -0.006187214    0.000412332    0.002202380
   6   C   :    0.013526796   -0.012440169    0.004988049
   7   C   :   -0.010325185   -0.002782910   -0.000460851
   8   H   :    0.000589079    0.000619807   -0.002933559
   9   H   :   -0.002124763    0.000981490    0.000702016
  10   H   :   -0.002895491   -0.000968142    0.003245209
  11   H   :    0.002701309    0.001283995   -0.000502521
  12   H   :   -0.017537805    0.009067892    0.007399494
  13   H   :    0.005073176   -0.000292203   -0.000018175
  14   H   :   -0.002570949    0.001444433   -0.000655667

Difference to translation invariance:
           :   -0.0000854406    0.0001026528   -0.0000065617

Difference to rotation invariance:
           :   -0.0005353414    0.0000839635   -0.0003596348

Norm of the cartesian gradient     ...    0.0446628117
RMS gradient                       ...    0.0068916215
MAX gradient                       ...    0.0235712543

-------
TIMINGS
-------

Total SCF gradient time            ...       11.148 sec

One electron gradient       ....       0.096 sec  (  0.9%)
RI-J Coulomb gradient       ....       0.586 sec  (  5.3%)
COSX gradient               ....       6.651 sec  ( 59.7%)
XC gradient                 ....       3.522 sec  ( 31.6%)

Maximum memory used throughout the entire SCFGRAD-calculation: 50.3 MB

                            ***************************************
                            *     ORCA property calculations      *
                            ***************************************

                                    ---------------------
                                    Active property flags
                                    ---------------------
   (+) Dipole Moment


------------------------------------------------------------------------------
                       ORCA ELECTRIC PROPERTIES CALCULATION
------------------------------------------------------------------------------

Dipole Moment Calculation                       ... on
Quadrupole Moment Calculation                   ... off
Polarizability Calculation                      ... off
GBWName                                         ... 14_2_orca.gbw
Electron density                                ... 14_2_orca.scfp
The origin for moment calculation is the CENTER OF MASS  = (-0.348798, -0.080522  0.394281)

-------------
DIPOLE MOMENT
-------------
                                X             Y             Z
Electronic contribution:     -0.86334       0.22788       1.78970
Nuclear contribution   :      1.69460       0.46901      -2.24475
                        -----------------------------------------
Total Dipole Moment    :      0.83126       0.69690      -0.45506
                        -----------------------------------------
Magnitude (a.u.)       :      1.17632
Magnitude (Debye)      :      2.98997



--------------------
Rotational spectrum 
--------------------
 
Rotational constants in cm-1:     0.196666     0.068804     0.058754 
Rotational constants in MHz :  5895.903847  2062.692360  1761.386175 

 Dipole components along the rotational axes: 
x,y,z [a.u.] :     0.919713     0.402069     0.613350 
x,y,z [Debye]:     2.337726     1.021978     1.559013 

 

Timings for individual modules:

Sum of individual times         ...       74.855 sec (=   1.248 min)
GTO integral calculation        ...        0.158 sec (=   0.003 min)   0.2 %
SCF iterations                  ...       63.521 sec (=   1.059 min)  84.9 %
SCF Gradient evaluation         ...       11.176 sec (=   0.186 min)  14.9 %
                             ****ORCA TERMINATED NORMALLY****
TOTAL RUN TIME: 0 days 0 hours 1 minutes 15 seconds 8 msec
