
                                 *****************
                                 * O   R   C   A *
                                 *****************

                                            #,                                       
                                            ###                                      
                                            ####                                     
                                            #####                                    
                                            ######                                   
                                           ########,                                 
                                     ,,################,,,,,                         
                               ,,#################################,,                 
                          ,,##########################################,,             
                       ,#########################################, ''#####,          
                    ,#############################################,,   '####,        
                  ,##################################################,,,,####,       
                ,###########''''           ''''###############################       
              ,#####''   ,,,,##########,,,,          '''####'''          '####       
            ,##' ,,,,###########################,,,                        '##       
           ' ,,###''''                  '''############,,,                           
         ,,##''                                '''############,,,,        ,,,,,,###''
      ,#''                                            '''#######################'''  
     '                                                          ''''####''''         
             ,#######,   #######,   ,#######,      ##                                
            ,#'     '#,  ##    ##  ,#'     '#,    #''#        ######   ,####,        
            ##       ##  ##   ,#'  ##            #'  '#       #        #'  '#        
            ##       ##  #######   ##           ,######,      #####,   #    #        
            '#,     ,#'  ##    ##  '#,     ,#' ,#      #,         ##   #,  ,#        
             '#######'   ##     ##  '#######'  #'      '#     #####' # '####'        



                  #######################################################
                  #                        -***-                        #
                  #          Department of theory and spectroscopy      #
                  #    Directorship and core code : Frank Neese         #
                  #        Max Planck Institute fuer Kohlenforschung    #
                  #                Kaiser Wilhelm Platz 1               #
                  #                 D-45470 Muelheim/Ruhr               #
                  #                      Germany                        #
                  #                                                     #
                  #                  All rights reserved                #
                  #                        -***-                        #
                  #######################################################


                         Program Version 5.0.4 -  RELEASE  -


 With contributions from (in alphabetic order):
   Daniel Aravena         : Magnetic Suceptibility
   Michael Atanasov       : Ab Initio Ligand Field Theory (pilot matlab implementation)
   Alexander A. Auer      : GIAO ZORA, VPT2 properties, NMR spectrum
   Ute Becker             : Parallelization
   Giovanni Bistoni       : ED, misc. LED, open-shell LED, HFLD
   Martin Brehm           : Molecular dynamics
   Dmytro Bykov           : SCF Hessian
   Vijay G. Chilkuri      : MRCI spin determinant printing, contributions to CSF-ICE
   Dipayan Datta          : RHF DLPNO-CCSD density
   Achintya Kumar Dutta   : EOM-CC, STEOM-CC
   Dmitry Ganyushin       : Spin-Orbit,Spin-Spin,Magnetic field MRCI
   Miquel Garcia          : C-PCM and meta-GGA Hessian, CC/C-PCM, Gaussian charge scheme
   Yang Guo               : DLPNO-NEVPT2, F12-NEVPT2, CIM, IAO-localization
   Andreas Hansen         : Spin unrestricted coupled pair/coupled cluster methods
   Benjamin Helmich-Paris : MC-RPA, TRAH-SCF, COSX integrals
   Lee Huntington         : MR-EOM, pCC
   Robert Izsak           : Overlap fitted RIJCOSX, COSX-SCS-MP3, EOM
   Marcus Kettner         : VPT2
   Christian Kollmar      : KDIIS, OOCD, Brueckner-CCSD(T), CCSD density, CASPT2, CASPT2-K
   Simone Kossmann        : Meta GGA functionals, TD-DFT gradient, OOMP2, MP2 Hessian
   Martin Krupicka        : Initial AUTO-CI
   Lucas Lang             : DCDCAS
   Marvin Lechner         : AUTO-CI (C++ implementation), FIC-MRCC
   Dagmar Lenk            : GEPOL surface, SMD
   Dimitrios Liakos       : Extrapolation schemes; Compound Job, initial MDCI parallelization
   Dimitrios Manganas     : Further ROCIS development; embedding schemes
   Dimitrios Pantazis     : SARC Basis sets
   Anastasios Papadopoulos: AUTO-CI, single reference methods and gradients
   Taras Petrenko         : DFT Hessian,TD-DFT gradient, ASA, ECA, R-Raman, ABS, FL, XAS/XES, NRVS
   Peter Pinski           : DLPNO-MP2, DLPNO-MP2 Gradient
   Christoph Reimann      : Effective Core Potentials
   Marius Retegan         : Local ZFS, SOC
   Christoph Riplinger    : Optimizer, TS searches, QM/MM, DLPNO-CCSD(T), (RO)-DLPNO pert. Triples
   Tobias Risthaus        : Range-separated hybrids, TD-DFT gradient, RPA, STAB
   Michael Roemelt        : Original ROCIS implementation
   Masaaki Saitow         : Open-shell DLPNO-CCSD energy and density
   Barbara Sandhoefer     : DKH picture change effects
   Avijit Sen             : IP-ROCIS
   Kantharuban Sivalingam : CASSCF convergence, NEVPT2, FIC-MRCI
   Bernardo de Souza      : ESD, SOC TD-DFT
   Georgi Stoychev        : AutoAux, RI-MP2 NMR, DLPNO-MP2 response
   Willem Van den Heuvel  : Paramagnetic NMR
   Boris Wezisla          : Elementary symmetry handling
   Frank Wennmohs         : Technical directorship


 We gratefully acknowledge several colleagues who have allowed us to
 interface, adapt or use parts of their codes:
   Stefan Grimme, W. Hujo, H. Kruse, P. Pracht,  : VdW corrections, initial TS optimization,
                  C. Bannwarth, S. Ehlert          DFT functionals, gCP, sTDA/sTD-DF
   Ed Valeev, F. Pavosevic, A. Kumar             : LibInt (2-el integral package), F12 methods
   Garnet Chan, S. Sharma, J. Yang, R. Olivares  : DMRG
   Ulf Ekstrom                                   : XCFun DFT Library
   Mihaly Kallay                                 : mrcc  (arbitrary order and MRCC methods)
   Jiri Pittner, Ondrej Demel                    : Mk-CCSD
   Frank Weinhold                                : gennbo (NPA and NBO analysis)
   Christopher J. Cramer and Donald G. Truhlar   : smd solvation model
   Lars Goerigk                                  : TD-DFT with DH, B97 family of functionals
   V. Asgeirsson, H. Jonsson                     : NEB implementation
   FAccTs GmbH                                   : IRC, NEB, NEB-TS, DLPNO-Multilevel, CI-OPT
                                                   MM, QMMM, 2- and 3-layer-ONIOM, Crystal-QMMM,
                                                   LR-CPCM, SF, NACMEs, symmetry and pop. for TD-DFT,
                                                   nearIR, NL-DFT gradient (VV10), updates on ESD,
                                                   ML-optimized integration grids
   S Lehtola, MJT Oliveira, MAL Marques          : LibXC Library
   Liviu Ungur et al                             : ANISO software


 Your calculation uses the libint2 library for the computation of 2-el integrals
 For citations please refer to: http://libint.valeyev.net

 Your ORCA version has been built with support for libXC version: 5.1.0
 For citations please refer to: https://tddft.org/programs/libxc/

 This ORCA versions uses:
   CBLAS   interface :  Fast vector & matrix operations
   LAPACKE interface :  Fast linear algebra routines
   SCALAPACK package :  Parallel linear algebra routines
   Shared memory     :  Shared parallel matrices
   BLAS/LAPACK       :  OpenBLAS 0.3.15  USE64BITINT DYNAMIC_ARCH NO_AFFINITY SkylakeX SINGLE_THREADED
        Core in use  :  SkylakeX
   Copyright (c) 2011-2014, The OpenBLAS Project


Your calculation utilizes the atom-pairwise dispersion correction
with the Becke-Johnson damping scheme (D3BJ)
Cite in your paper:
S.Grimme, S.Ehrlich, L.Goerigk, J Comput Chem, (2011), 32, 1456–1465 
S.Grimme, J.Antony, S.Ehrlich and H.Krieg, J.Chem.Phys., 132, (2010), 154104 
   

================================================================================

----- Orbital basis set information -----
Your calculation utilizes the basis: def2-SVP
   F. Weigend and R. Ahlrichs, Phys. Chem. Chem. Phys. 7, 3297 (2005).

----- AuxJ basis set information -----
Your calculation utilizes the auxiliary basis: def2/J
   F. Weigend, Phys. Chem. Chem. Phys. 8, 1057 (2006).

================================================================================
                                        WARNINGS
                       Please study these warnings very carefully!
================================================================================


WARNING: your system is open-shell and RHF/RKS was chosen
  ===> : WILL SWITCH to UHF/UKS


INFO   : the flag for use of the SHARK integral package has been found!

================================================================================
                                       INPUT FILE
================================================================================
NAME = 8_2_orca.inp
|  1> ! EnGrad PBE0 RIJCOSX D3BJ def2-SVP def2/J 
|  2> %output 
|  3> xyzfile=True 
|  4> end 
|  5> %scf 
|  6> maxiter 250 
|  7> end
|  8> %output
|  9> Print[P_Hirshfeld] = 1
| 10> end
| 11> % maxcore
| 12> 4000
| 13> *xyz 0 2
| 14> O   -2.34049154  -0.77263578   1.31224480 
| 15> O   -0.63938183   0.02424631   0.97662495 
| 16> C   -0.68013806   0.41841167  -0.36112984 
| 17> C    0.33310459   1.18349277   0.34678344 
| 18> C    1.58674503   0.44374543   0.23089611 
| 19> C    1.36140039  -0.67159364  -0.48082685 
| 20> C    0.00444007  -0.62184836  -1.19248743 
| 21> H   -2.27826110  -0.31066310   2.15953303 
| 22> H   -1.63572608   0.87499438  -0.66271988 
| 23> H    0.18921940   2.16839382   0.82495315 
| 24> H    2.50349150   0.68942598   0.77380147 
| 25> H    1.99878036  -1.52393357  -0.52808346 
| 26> H    0.17721900  -0.34370664  -2.24363296 
| 27> H   -0.57998297  -1.55780609  -1.15581978 
| 28> *
| 29> 
| 30>                          ****END OF INPUT****
================================================================================

                     *******************************
                     * Energy+Gradient Calculation *
                     *******************************

---------------------------------
CARTESIAN COORDINATES (ANGSTROEM)
---------------------------------
  O     -2.340492   -0.772636    1.312245
  O     -0.639382    0.024246    0.976625
  C     -0.680138    0.418412   -0.361130
  C      0.333105    1.183493    0.346783
  C      1.586745    0.443745    0.230896
  C      1.361400   -0.671594   -0.480827
  C      0.004440   -0.621848   -1.192487
  H     -2.278261   -0.310663    2.159533
  H     -1.635726    0.874994   -0.662720
  H      0.189219    2.168394    0.824953
  H      2.503491    0.689426    0.773801
  H      1.998780   -1.523934   -0.528083
  H      0.177219   -0.343707   -2.243633
  H     -0.579983   -1.557806   -1.155820

----------------------------
CARTESIAN COORDINATES (A.U.)
----------------------------
  NO LB      ZA    FRAG     MASS         X           Y           Z
   0 O     8.0000    0    15.999   -4.422888   -1.460070    2.479783
   1 O     8.0000    0    15.999   -1.208257    0.045819    1.845554
   2 C     6.0000    0    12.011   -1.285275    0.790683   -0.682436
   3 C     6.0000    0    12.011    0.629476    2.236477    0.655326
   4 C     6.0000    0    12.011    2.998514    0.838557    0.436330
   5 C     6.0000    0    12.011    2.572674   -1.269128   -0.908631
   6 C     6.0000    0    12.011    0.008391   -1.175123   -2.253475
   7 H     1.0000    0     1.008   -4.305290   -0.587068    4.080926
   8 H     1.0000    0     1.008   -3.091074    1.653500   -1.252359
   9 H     1.0000    0     1.008    0.357573    4.097670    1.558936
  10 H     1.0000    0     1.008    4.730913    1.302826    1.462273
  11 H     1.0000    0     1.008    3.777147   -2.879817   -0.997933
  12 H     1.0000    0     1.008    0.334895   -0.649511   -4.239852
  13 H     1.0000    0     1.008   -1.096009   -2.943827   -2.184183

--------------------------------
INTERNAL COORDINATES (ANGSTROEM)
--------------------------------
 O      0   0   0     0.000000000000     0.00000000     0.00000000
 O      1   0   0     1.908254698549     0.00000000     0.00000000
 C      2   1   0     1.395211553663   105.10395436     0.00000000
 C      3   2   1     1.453668108392    70.20833955   158.24540834
 C      4   3   2     1.460229554931   107.04581067    90.45548818
 C      5   4   3     1.342129285738   108.59832818   359.93974244
 C      3   2   1     1.497312121283   108.82847108   261.75742015
 H      1   2   3     0.967051565029    84.10185879   220.17556135
 H      3   2   1     1.101168827776   113.89690155    41.81917402
 H      4   3   2     1.104255087266   126.11993633   266.96903114
 H      5   4   3     1.093402603263   124.51211557   188.87111870
 H      6   5   4     1.065349599718   126.01062207   196.53659828
 H      7   3   2     1.100964259318   115.23561715   189.41531150
 H      7   3   2     1.104043331843   109.17884816    66.11902546

---------------------------
INTERNAL COORDINATES (A.U.)
---------------------------
 O      0   0   0     0.000000000000     0.00000000     0.00000000
 O      1   0   0     3.606078774025     0.00000000     0.00000000
 C      2   1   0     2.636567735306   105.10395436     0.00000000
 C      3   2   1     2.747034614477    70.20833955   158.24540834
 C      4   3   2     2.759433951478   107.04581067    90.45548818
 C      5   4   3     2.536256786361   108.59832818   359.93974244
 C      3   2   1     2.829509846225   108.82847108   261.75742015
 H      1   2   3     1.827462615285    84.10185879   220.17556135
 H      3   2   1     2.080907511708   113.89690155    41.81917402
 H      4   3   2     2.086739696923   126.11993633   266.96903114
 H      5   4   3     2.066231474284   124.51211557   188.87111870
 H      6   5   4     2.013218980349   126.01062207   196.53659828
 H      7   3   2     2.080520933346   115.23561715   189.41531150
 H      7   3   2     2.086339537164   109.17884816    66.11902546

---------------------
BASIS SET INFORMATION
---------------------
There are 3 groups of distinct atoms

 Group   1 Type O   : 7s4p1d contracted to 3s2p1d pattern {511/31/1}
 Group   2 Type C   : 7s4p1d contracted to 3s2p1d pattern {511/31/1}
 Group   3 Type H   : 4s1p contracted to 2s1p pattern {31/1}

Atom   0O    basis set group =>   1
Atom   1O    basis set group =>   1
Atom   2C    basis set group =>   2
Atom   3C    basis set group =>   2
Atom   4C    basis set group =>   2
Atom   5C    basis set group =>   2
Atom   6C    basis set group =>   2
Atom   7H    basis set group =>   3
Atom   8H    basis set group =>   3
Atom   9H    basis set group =>   3
Atom  10H    basis set group =>   3
Atom  11H    basis set group =>   3
Atom  12H    basis set group =>   3
Atom  13H    basis set group =>   3
---------------------------------
AUXILIARY/J BASIS SET INFORMATION
---------------------------------
There are 3 groups of distinct atoms

 Group   1 Type O   : 12s5p4d2f1g contracted to 6s4p3d1f1g pattern {711111/2111/211/2/1}
 Group   2 Type C   : 12s5p4d2f1g contracted to 6s4p3d1f1g pattern {711111/2111/211/2/1}
 Group   3 Type H   : 5s2p1d contracted to 3s1p1d pattern {311/2/1}

Atom   0O    basis set group =>   1
Atom   1O    basis set group =>   1
Atom   2C    basis set group =>   2
Atom   3C    basis set group =>   2
Atom   4C    basis set group =>   2
Atom   5C    basis set group =>   2
Atom   6C    basis set group =>   2
Atom   7H    basis set group =>   3
Atom   8H    basis set group =>   3
Atom   9H    basis set group =>   3
Atom  10H    basis set group =>   3
Atom  11H    basis set group =>   3
Atom  12H    basis set group =>   3
Atom  13H    basis set group =>   3
------------------------------------------------------------------------------
                           ORCA GTO INTEGRAL CALCULATION
                           -- RI-GTO INTEGRALS CHOSEN --
------------------------------------------------------------------------------
------------------------------------------------------------------------------
                   ___                                                        
                  /   \      - P O W E R E D   B Y -                         
                 /     \                                                     
                 |  |  |   _    _      __       _____    __    __             
                 |  |  |  | |  | |    /  \     |  _  \  |  |  /  |          
                  \  \/   | |  | |   /    \    | | | |  |  | /  /          
                 / \  \   | |__| |  /  /\  \   | |_| |  |  |/  /          
                |  |  |   |  __  | /  /__\  \  |    /   |      \           
                |  |  |   | |  | | |   __   |  |    \   |  |\   \          
                \     /   | |  | | |  |  |  |  | |\  \  |  | \   \       
                 \___/    |_|  |_| |__|  |__|  |_| \__\ |__|  \__/        
                                                                              
                      - O R C A' S   B I G   F R I E N D -                    
                                      &                                       
                       - I N T E G R A L  F E E D E R -                       
                                                                              
 v1 FN, 2020, v2 2021                                                         
------------------------------------------------------------------------------


Reading SHARK input file 8_2_orca.SHARKINP.tmp ... ok
----------------------
SHARK INTEGRAL PACKAGE
----------------------

Number of atoms                             ...     14
Number of basis functions                   ...    133
Number of shells                            ...     63
Maximum angular momentum                    ...      2
Integral batch strategy                     ... SHARK/LIBINT Hybrid
RI-J (if used) integral strategy            ... SPLIT-RIJ (Revised 2003 algorithm where possible)
Printlevel                                  ...      1
Contraction scheme used                     ... SEGMENTED contraction
Coulomb Range Separation                    ... NOT USED
Exchange Range Separation                   ... NOT USED
Finite Nucleus Model                        ... NOT USED
Auxiliary Coulomb fitting basis             ... AVAILABLE
   # of basis functions in Aux-J            ...    420
   # of shells in Aux-J                     ...    140
   Maximum angular momentum in Aux-J        ...      4
Auxiliary J/K fitting basis                 ... NOT available
Auxiliary Correlation fitting basis         ... NOT available
Auxiliary 'external' fitting basis          ... NOT available
Integral threshold                          ...     2.500000e-11
Primitive cut-off                           ...     2.500000e-12
Primitive pair pre-selection threshold      ...     2.500000e-12

Calculating pre-screening integrals         ... done (  0.0 sec) Dimension = 63
Organizing shell pair data                  ... done (  0.0 sec)
Shell pair information
Total number of shell pairs                 ...      2016
Shell pairs after pre-screening             ...      1955
Total number of primitive shell pairs       ...      7252
Primitive shell pairs kept                  ...      5346
          la=0 lb=0:    606 shell pairs
          la=1 lb=0:    716 shell pairs
          la=1 lb=1:    225 shell pairs
          la=2 lb=0:    236 shell pairs
          la=2 lb=1:    144 shell pairs
          la=2 lb=2:     28 shell pairs

Calculating one electron integrals          ... done (  0.0 sec)
Calculating RI/J V-Matrix + Cholesky decomp.... done (  0.0 sec)
Calculating Nuclear repulsion               ... done (  0.0 sec) ENN=    301.492702918772 Eh

SHARK setup successfully completed in   0.1 seconds

Maximum memory used throughout the entire GTOINT-calculation: 16.9 MB
-------------------------------------------------------------------------------
                                 ORCA SCF
-------------------------------------------------------------------------------

------------
SCF SETTINGS
------------
Hamiltonian:
 Density Functional     Method          .... DFT(GTOs)
 Exchange Functional    Exchange        .... PBE
   PBE kappa parameter   XKappa         ....  0.804000
   PBE mue parameter    XMuePBE         ....  0.219520
 Correlation Functional Correlation     .... PBE
   PBE beta parameter  CBetaPBE         ....  0.066725
 LDA part of GGA corr.  LDAOpt          .... PW91-LDA
 Gradients option       PostSCFGGA      .... off
 Hybrid DFT is turned on
   Fraction HF Exchange ScalHFX         ....  0.250000
   Scaling of DF-GGA-X  ScalDFX         ....  0.750000
   Scaling of DF-GGA-C  ScalDFC         ....  1.000000
   Scaling of DF-LDA-C  ScalLDAC        ....  1.000000
   Perturbative correction              ....  0.000000
   Density functional embedding theory  .... OFF
   NL short-range parameter             ....  6.900000
 RI-approximation to the Coulomb term is turned on
   Number of AuxJ basis functions       .... 420
   RIJ-COSX (HFX calculated with COS-X)).... on


General Settings:
 Integral files         IntName         .... 8_2_orca
 Hartree-Fock type      HFTyp           .... UHF
 Total Charge           Charge          ....    0
 Multiplicity           Mult            ....    2
 Number of Electrons    NEL             ....   53
 Basis Dimension        Dim             ....  133
 Nuclear Repulsion      ENuc            ....    301.4927029188 Eh

Convergence Acceleration:
 DIIS                   CNVDIIS         .... on
   Start iteration      DIISMaxIt       ....    12
   Startup error        DIISStart       ....  0.200000
   # of expansion vecs  DIISMaxEq       ....     5
   Bias factor          DIISBfac        ....   1.050
   Max. coefficient     DIISMaxC        ....  10.000
 Trust-Rad. Augm. Hess. CNVTRAH         .... auto
   Auto Start mean grad. ratio tolernc. ....  1.125000
   Auto Start start iteration           ....    20
   Auto Start num. interpolation iter.  ....    10
   Max. Number of Micro iterations      ....    16
   Max. Number of Macro iterations      .... Maxiter - #DIIS iter
   Number of Davidson start vectors     ....     2
   Converg. threshold I  (grad. norm)   ....   1.000e-05
   Converg. threshold II (energy diff.) ....   1.000e-08
   Grad. Scal. Fac. for Micro threshold ....   0.100
   Minimum threshold for Micro iter.    ....   0.010
   NR start threshold (gradient norm)   ....   0.001
   Initial trust radius                 ....   0.400
   Minimum AH scaling param. (alpha)    ....   1.000
   Maximum AH scaling param. (alpha)    .... 1000.000
   Orbital update algorithm             .... Taylor
   White noise on init. David. guess    .... on
   Maximum white noise                  ....   0.010
   Quad. conv. algorithm                .... NR
 SOSCF                  CNVSOSCF        .... off
 Level Shifting         CNVShift        .... on
   Level shift para.    LevelShift      ....    0.2500
   Turn off err/grad.   ShiftErr        ....    0.0010
 Zerner damping         CNVZerner       .... off
 Static damping         CNVDamp         .... on
   Fraction old density DampFac         ....    0.7000
   Max. Damping (<1)    DampMax         ....    0.9800
   Min. Damping (>=0)   DampMin         ....    0.0000
   Turn off err/grad.   DampErr         ....    0.1000
 Fernandez-Rico         CNVRico         .... off

SCF Procedure:
 Maximum # iterations   MaxIter         ....   250
 SCF integral mode      SCFMode         .... Direct
   Integral package                     .... SHARK and LIBINT hybrid scheme
 Reset frequency        DirectResetFreq ....    20
 Integral Threshold     Thresh          ....  2.500e-11 Eh
 Primitive CutOff       TCut            ....  2.500e-12 Eh

Convergence Tolerance:
 Convergence Check Mode ConvCheckMode   .... Total+1el-Energy
 Convergence forced     ConvForced      .... 0
 Energy Change          TolE            ....  1.000e-08 Eh
 1-El. energy change                    ....  1.000e-05 Eh
 DIIS Error             TolErr          ....  5.000e-07


Diagonalization of the overlap matrix:
Smallest eigenvalue                        ... 7.314e-04
Time for diagonalization                   ...    0.003 sec
Threshold for overlap eigenvalues          ... 1.000e-08
Number of eigenvalues below threshold      ... 0
Time for construction of square roots      ...    0.001 sec
Total time needed                          ...    0.004 sec

Time for model grid setup =    0.120 sec

------------------------------
INITIAL GUESS: MODEL POTENTIAL
------------------------------
Loading Hartree-Fock densities                     ... done
Calculating cut-offs                               ... done
Initializing the effective Hamiltonian             ... done
Setting up the integral package (SHARK)            ... done
Starting the Coulomb interaction                   ... done (   0.1 sec)
Reading the grid                                   ... done
Mapping shells                                     ... done
Starting the XC term evaluation                    ... done (   0.1 sec)
  promolecular density results
     # of electrons  =     52.994815483
     EX              =    -43.869306854
     EC              =     -1.755154476
     EX+EC           =    -45.624461330
Transforming the Hamiltonian                       ... done (   0.0 sec)
Diagonalizing the Hamiltonian                      ... done (   0.0 sec)
Back transforming the eigenvectors                 ... done (   0.0 sec)
Now organizing SCF variables                       ... done
                      ------------------
                      INITIAL GUESS DONE (   0.3 sec)
                      ------------------
-------------------
DFT GRID GENERATION
-------------------

General Integration Accuracy     IntAcc      ... 4.388
Radial Grid Type                 RadialGrid  ... OptM3 with GC (2021)
Angular Grid (max. ang.)         AngularGrid ... 4 (Lebedev-302)
Angular grid pruning method      GridPruning ... 4 (adaptive)
Weight generation scheme         WeightScheme... Becke
Basis function cutoff            BFCut       ... 1.0000e-11
Integration weight cutoff        WCut        ... 1.0000e-14
Angular grids for H and He will be reduced by one unit
Partially contracted basis set               ... off
Rotationally invariant grid construction     ... off

Total number of grid points                  ...    64885
Total number of batches                      ...     1021
Average number of points per batch           ...       63
Average number of grid points per atom       ...     4635
Time for grid setup =    0.488 sec

--------------------
COSX GRID GENERATION
--------------------

GRIDX 1
-------
General Integration Accuracy     IntAcc      ... 3.816
Radial Grid Type                 RadialGrid  ... OptM3 with GC (2021)
Angular Grid (max. ang.)         AngularGrid ... 1 (Lebedev-50)
Angular grid pruning method      GridPruning ... 4 (adaptive)
Weight generation scheme         WeightScheme... Becke
Basis function cutoff            BFCut       ... 1.0000e-11
Integration weight cutoff        WCut        ... 1.0000e-14
Angular grids for H and He will be reduced by one unit
Partially contracted basis set               ... on
Rotationally invariant grid construction     ... off

Total number of grid points                  ...     8302
Total number of batches                      ...      136
Average number of points per batch           ...       61
Average number of grid points per atom       ...      593
UseSFitting                                  ... on

GRIDX 2
-------
General Integration Accuracy     IntAcc      ... 4.020
Radial Grid Type                 RadialGrid  ... OptM3 with GC (2021)
Angular Grid (max. ang.)         AngularGrid ... 2 (Lebedev-110)
Angular grid pruning method      GridPruning ... 4 (adaptive)
Weight generation scheme         WeightScheme... Becke
Basis function cutoff            BFCut       ... 1.0000e-11
Integration weight cutoff        WCut        ... 1.0000e-14
Angular grids for H and He will be reduced by one unit
Partially contracted basis set               ... on
Rotationally invariant grid construction     ... off

Total number of grid points                  ...    18026
Total number of batches                      ...      289
Average number of points per batch           ...       62
Average number of grid points per atom       ...     1288
UseSFitting                                  ... on

GRIDX 3
-------
General Integration Accuracy     IntAcc      ... 4.338
Radial Grid Type                 RadialGrid  ... OptM3 with GC (2021)
Angular Grid (max. ang.)         AngularGrid ... 3 (Lebedev-194)
Angular grid pruning method      GridPruning ... 4 (adaptive)
Weight generation scheme         WeightScheme... Becke
Basis function cutoff            BFCut       ... 1.0000e-11
Integration weight cutoff        WCut        ... 1.0000e-14
Angular grids for H and He will be reduced by one unit
Partially contracted basis set               ... on
Rotationally invariant grid construction     ... off

Total number of grid points                  ...    39641
Total number of batches                      ...      628
Average number of points per batch           ...       63
Average number of grid points per atom       ...     2832
UseSFitting                                  ... on

Time for X-Grid setup             =    0.562 sec

--------------
SCF ITERATIONS
--------------
ITER       Energy         Delta-E        Max-DP      RMS-DP      [F,P]     Damp
               ***  Starting incremental Fock matrix formation  ***
  0   -344.1403866588   0.000000000000 0.05192991  0.00145133  0.1520543 0.7000
  1   -344.2332349683  -0.092848309484 0.03573628  0.00096485  0.0552634 0.7000
                               ***Turning on DIIS***
  2   -344.2674733660  -0.034238397669 0.06326853  0.00159480  0.0161742 0.0000
  3   -344.3294588471  -0.061985481116 0.03699362  0.00082929  0.0457656 0.0000
  4   -344.3443986307  -0.014939783589 0.00935061  0.00033167  0.0131458 0.0000
  5   -344.3469196858  -0.002521055132 0.01092048  0.00023714  0.0073604 0.0000
  6   -344.3482804804  -0.001360794532 0.00793673  0.00017680  0.0057921 0.0000
  7   -344.3489475866  -0.000667106198 0.00305411  0.00010278  0.0025400 0.0000
  8   -344.3491651998  -0.000217613245 0.00296786  0.00006277  0.0024466 0.0000
  9   -344.3492593953  -0.000094195477 0.00320899  0.00008411  0.0008562 0.0000
               *** Restarting incremental Fock matrix formation ***
                                   *** Resetting DIIS ***
 10   -344.3493062644  -0.000046869064 0.00138104  0.00002521  0.0005132 0.0000
 11   -344.3493110051  -0.000004740741 0.00048152  0.00001254  0.0004037 0.0000
 12   -344.3493147509  -0.000003745822 0.00101855  0.00001511  0.0003775 0.0000
 13   -344.3493178028  -0.000003051915 0.00109062  0.00001493  0.0002911 0.0000
 14   -344.3493201199  -0.000002317077 0.00117362  0.00001641  0.0002073 0.0000
 15   -344.3493216684  -0.000001548539 0.00048248  0.00000635  0.0001054 0.0000
 16   -344.3493220442  -0.000000375735 0.00048708  0.00000638  0.0000697 0.0000
 17   -344.3493222470  -0.000000202831 0.00012501  0.00000192  0.0000300 0.0000
 18   -344.3493222793  -0.000000032326 0.00016305  0.00000214  0.0000212 0.0000
 19   -344.3493223092  -0.000000029824 0.00006261  0.00000095  0.0000108 0.0000
 20   -344.3493223164  -0.000000007268 0.00003086  0.00000064  0.0000110 0.0000
 21   -344.3493223185  -0.000000002054 0.00004919  0.00000078  0.0000075 0.0000
 22   -344.3493223248  -0.000000006282 0.00001142  0.00000031  0.0000053 0.0000
                 **** Energy Check signals convergence ****

               *****************************************************
               *                     SUCCESS                       *
               *           SCF CONVERGED AFTER  23 CYCLES          *
               *****************************************************

Old exchange energy                            =    -11.180431967 Eh
New exchange energy                            =    -11.180457938 Eh
Exchange energy change after final integration =     -0.000025971 Eh
Total energy after final integration           =   -344.349348294 Eh
Final COS-X integration done in                =     5.286 sec

----------------
TOTAL SCF ENERGY
----------------

Total Energy       :         -344.34934829 Eh           -9370.22214 eV

Components:
Nuclear Repulsion  :          301.49270292 Eh            8204.03353 eV
Electronic Energy  :         -645.84205121 Eh          -17574.25567 eV
One Electron Energy:        -1066.43628731 Eh          -29019.20669 eV
Two Electron Energy:          420.59423610 Eh           11444.95101 eV
Max COSX asymmetry :            0.00000075 Eh               0.00002 eV

Virial components:
Potential Energy   :         -685.97188607 Eh          -18666.24399 eV
Kinetic Energy     :          341.62253778 Eh            9296.02185 eV
Virial Ratio       :            2.00798194


DFT components:
N(Alpha)           :       27.000005384352 electrons
N(Beta)            :       26.000003457770 electrons
N(Total)           :       53.000008842122 electrons
E(X)               :      -33.474141315992 Eh       
E(C)               :       -1.770335198915 Eh       
E(XC)              :      -35.244476514907 Eh       
DFET-embed. en.    :        0.000000000000 Eh       

---------------
SCF CONVERGENCE
---------------

  Last Energy change         ...    1.4643e-09  Tolerance :   1.0000e-08
  Last MAX-Density change    ...    0.0000e+00  Tolerance :   1.0000e-07
  Last RMS-Density change    ...    0.0000e+00  Tolerance :   5.0000e-09
  Last DIIS Error            ...    4.1557e-06  Tolerance :   5.0000e-07

             **** THE GBW FILE WAS UPDATED (8_2_orca.gbw) ****
             **** DENSITY 8_2_orca.scfp WAS UPDATED ****
             **** ENERGY FILE WAS UPDATED (8_2_orca.en.tmp) ****
----------------------
UHF SPIN CONTAMINATION
----------------------

Warning: in a DFT calculation there is little theoretical justification to 
         calculate <S**2> as in Hartree-Fock theory. We will do it anyways
         but you should keep in mind that the values have only limited relevance

Expectation value of <S**2>     :     0.768389
Ideal value S*(S+1) for S=0.5   :     0.750000
Deviation                       :     0.018389

             **** THE GBW FILE WAS UPDATED (8_2_orca.gbw) ****
             **** DENSITY 8_2_orca.scfp WAS UPDATED ****
----------------
ORBITAL ENERGIES
----------------
                 SPIN UP ORBITALS
  NO   OCC          E(Eh)            E(eV) 
   0   1.0000     -19.229726      -523.2675 
   1   1.0000     -19.194211      -522.3010 
   2   1.0000     -10.298993      -280.2499 
   3   1.0000     -10.289807      -279.9999 
   4   1.0000     -10.251848      -278.9670 
   5   1.0000     -10.245328      -278.7895 
   6   1.0000     -10.244167      -278.7580 
   7   1.0000      -1.083189       -29.4751 
   8   1.0000      -0.955066       -25.9887 
   9   1.0000      -0.848883       -23.0993 
  10   1.0000      -0.745004       -20.2726 
  11   1.0000      -0.701122       -19.0785 
  12   1.0000      -0.590604       -16.0711 
  13   1.0000      -0.572517       -15.5790 
  14   1.0000      -0.559023       -15.2118 
  15   1.0000      -0.481391       -13.0993 
  16   1.0000      -0.467684       -12.7263 
  17   1.0000      -0.428910       -11.6712 
  18   1.0000      -0.418184       -11.3794 
  19   1.0000      -0.408933       -11.1276 
  20   1.0000      -0.406428       -11.0595 
  21   1.0000      -0.375278       -10.2118 
  22   1.0000      -0.364511        -9.9188 
  23   1.0000      -0.315872        -8.5953 
  24   1.0000      -0.301632        -8.2078 
  25   1.0000      -0.270404        -7.3581 
  26   1.0000      -0.236306        -6.4302 
  27   0.0000      -0.023641        -0.6433 
  28   0.0000       0.072219         1.9652 
  29   0.0000       0.084534         2.3003 
  30   0.0000       0.106218         2.8903 
  31   0.0000       0.110876         3.0171 
  32   0.0000       0.119971         3.2646 
  33   0.0000       0.132405         3.6029 
  34   0.0000       0.139255         3.7893 
  35   0.0000       0.142419         3.8754 
  36   0.0000       0.174045         4.7360 
  37   0.0000       0.200403         5.4532 
  38   0.0000       0.220335         5.9956 
  39   0.0000       0.295292         8.0353 
  40   0.0000       0.320820         8.7300 
  41   0.0000       0.386780        10.5248 
  42   0.0000       0.399952        10.8832 
  43   0.0000       0.444374        12.0920 
  44   0.0000       0.460961        12.5434 
  45   0.0000       0.486597        13.2410 
  46   0.0000       0.498588        13.5673 
  47   0.0000       0.521999        14.2043 
  48   0.0000       0.544339        14.8122 
  49   0.0000       0.558055        15.1854 
  50   0.0000       0.582449        15.8492 
  51   0.0000       0.603751        16.4289 
  52   0.0000       0.623387        16.9632 
  53   0.0000       0.629620        17.1328 
  54   0.0000       0.649717        17.6797 
  55   0.0000       0.660359        17.9693 
  56   0.0000       0.668985        18.2040 
  57   0.0000       0.684104        18.6154 
  58   0.0000       0.691784        18.8244 
  59   0.0000       0.694605        18.9012 
  60   0.0000       0.718459        19.5502 
  61   0.0000       0.732555        19.9338 
  62   0.0000       0.759383        20.6639 
  63   0.0000       0.794193        21.6111 
  64   0.0000       0.830102        22.5882 
  65   0.0000       0.917956        24.9788 
  66   0.0000       0.949021        25.8242 
  67   0.0000       0.962859        26.2007 
  68   0.0000       0.994169        27.0527 
  69   0.0000       1.053833        28.6762 
  70   0.0000       1.070362        29.1260 
  71   0.0000       1.081420        29.4269 
  72   0.0000       1.112996        30.2862 
  73   0.0000       1.147702        31.2305 
  74   0.0000       1.200102        32.6564 
  75   0.0000       1.242645        33.8141 
  76   0.0000       1.293955        35.2103 
  77   0.0000       1.350019        36.7359 
  78   0.0000       1.450812        39.4786 
  79   0.0000       1.475625        40.1538 
  80   0.0000       1.503186        40.9038 
  81   0.0000       1.540141        41.9094 
  82   0.0000       1.570978        42.7485 
  83   0.0000       1.602369        43.6027 
  84   0.0000       1.629182        44.3323 
  85   0.0000       1.649187        44.8767 
  86   0.0000       1.660648        45.1885 
  87   0.0000       1.684526        45.8383 
  88   0.0000       1.721768        46.8517 
  89   0.0000       1.758134        47.8413 
  90   0.0000       1.777193        48.3599 
  91   0.0000       1.802642        49.0524 
  92   0.0000       1.816858        49.4392 
  93   0.0000       1.842464        50.1360 
  94   0.0000       1.862174        50.6723 
  95   0.0000       1.892633        51.5012 
  96   0.0000       1.909858        51.9699 
  97   0.0000       1.954325        53.1799 
  98   0.0000       1.993954        54.2583 
  99   0.0000       2.016346        54.8676 
 100   0.0000       2.031944        55.2920 
 101   0.0000       2.054076        55.8943 
 102   0.0000       2.084966        56.7348 
 103   0.0000       2.136184        58.1285 
 104   0.0000       2.189560        59.5810 
 105   0.0000       2.259442        61.4826 
 106   0.0000       2.275128        61.9094 
 107   0.0000       2.308517        62.8179 
 108   0.0000       2.319318        63.1119 
 109   0.0000       2.374400        64.6107 
 110   0.0000       2.423774        65.9542 
 111   0.0000       2.515262        68.4438 
 112   0.0000       2.545168        69.2575 
 113   0.0000       2.593288        70.5669 
 114   0.0000       2.669558        72.6424 
 115   0.0000       2.680268        72.9338 
 116   0.0000       2.694776        73.3286 
 117   0.0000       2.714070        73.8536 
 118   0.0000       2.737083        74.4798 
 119   0.0000       2.800131        76.1954 
 120   0.0000       2.814721        76.5925 
 121   0.0000       2.858396        77.7809 
 122   0.0000       2.917077        79.3777 
 123   0.0000       2.951307        80.3092 
 124   0.0000       3.024175        82.2920 
 125   0.0000       3.044571        82.8470 
 126   0.0000       3.081458        83.8507 
 127   0.0000       3.101037        84.3835 
 128   0.0000       3.165061        86.1257 
 129   0.0000       3.217805        87.5609 
 130   0.0000       3.427700        93.2724 
 131   0.0000       3.448101        93.8276 
 132   0.0000       3.763289       102.4043 

                 SPIN DOWN ORBITALS
  NO   OCC          E(Eh)            E(eV) 
   0   1.0000     -19.227082      -523.1955 
   1   1.0000     -19.170472      -521.6551 
   2   1.0000     -10.296468      -280.1811 
   3   1.0000     -10.290174      -280.0099 
   4   1.0000     -10.249535      -278.9040 
   5   1.0000     -10.246649      -278.8255 
   6   1.0000     -10.244300      -278.7616 
   7   1.0000      -1.078593       -29.3500 
   8   1.0000      -0.897583       -24.4245 
   9   1.0000      -0.843388       -22.9498 
  10   1.0000      -0.744460       -20.2578 
  11   1.0000      -0.695554       -18.9270 
  12   1.0000      -0.589021       -16.0281 
  13   1.0000      -0.570470       -15.5233 
  14   1.0000      -0.556441       -15.1415 
  15   1.0000      -0.473695       -12.8899 
  16   1.0000      -0.461909       -12.5692 
  17   1.0000      -0.418442       -11.3864 
  18   1.0000      -0.415693       -11.3116 
  19   1.0000      -0.407854       -11.0983 
  20   1.0000      -0.391721       -10.6593 
  21   1.0000      -0.367613       -10.0033 
  22   1.0000      -0.350682        -9.5425 
  23   1.0000      -0.295565        -8.0427 
  24   1.0000      -0.263990        -7.1835 
  25   1.0000      -0.250178        -6.8077 
  26   0.0000      -0.072778        -1.9804 
  27   0.0000      -0.002492        -0.0678 
  28   0.0000       0.074585         2.0296 
  29   0.0000       0.092734         2.5234 
  30   0.0000       0.107378         2.9219 
  31   0.0000       0.113626         3.0919 
  32   0.0000       0.122296         3.3278 
  33   0.0000       0.134568         3.6618 
  34   0.0000       0.140657         3.8275 
  35   0.0000       0.143214         3.8970 
  36   0.0000       0.176121         4.7925 
  37   0.0000       0.202433         5.5085 
  38   0.0000       0.221262         6.0208 
  39   0.0000       0.297030         8.0826 
  40   0.0000       0.321464         8.7475 
  41   0.0000       0.388459        10.5705 
  42   0.0000       0.399650        10.8750 
  43   0.0000       0.447612        12.1801 
  44   0.0000       0.462190        12.5768 
  45   0.0000       0.488353        13.2888 
  46   0.0000       0.501806        13.6548 
  47   0.0000       0.528955        14.3936 
  48   0.0000       0.546368        14.8674 
  49   0.0000       0.559729        15.2310 
  50   0.0000       0.585482        15.9318 
  51   0.0000       0.605151        16.4670 
  52   0.0000       0.624626        16.9969 
  53   0.0000       0.632522        17.2118 
  54   0.0000       0.651721        17.7342 
  55   0.0000       0.667177        18.1548 
  56   0.0000       0.671274        18.2663 
  57   0.0000       0.684535        18.6272 
  58   0.0000       0.692967        18.8566 
  59   0.0000       0.695950        18.9377 
  60   0.0000       0.719039        19.5661 
  61   0.0000       0.734245        19.9798 
  62   0.0000       0.760965        20.7069 
  63   0.0000       0.795683        21.6516 
  64   0.0000       0.831115        22.6158 
  65   0.0000       0.919394        25.0180 
  66   0.0000       0.960350        26.1325 
  67   0.0000       0.995261        27.0824 
  68   0.0000       1.008780        27.4503 
  69   0.0000       1.060543        28.8588 
  70   0.0000       1.075488        29.2655 
  71   0.0000       1.096212        29.8295 
  72   0.0000       1.123254        30.5653 
  73   0.0000       1.155382        31.4395 
  74   0.0000       1.203798        32.7570 
  75   0.0000       1.257685        34.2233 
  76   0.0000       1.309822        35.6421 
  77   0.0000       1.354016        36.8447 
  78   0.0000       1.453581        39.5539 
  79   0.0000       1.476035        40.1650 
  80   0.0000       1.506601        40.9967 
  81   0.0000       1.544208        42.0200 
  82   0.0000       1.577367        42.9223 
  83   0.0000       1.603605        43.6363 
  84   0.0000       1.633614        44.4529 
  85   0.0000       1.655688        45.0535 
  86   0.0000       1.662935        45.2508 
  87   0.0000       1.684860        45.8474 
  88   0.0000       1.723651        46.9029 
  89   0.0000       1.760686        47.9107 
  90   0.0000       1.778707        48.4011 
  91   0.0000       1.805294        49.1246 
  92   0.0000       1.819093        49.5000 
  93   0.0000       1.844623        50.1947 
  94   0.0000       1.864645        50.7396 
  95   0.0000       1.893733        51.5311 
  96   0.0000       1.912365        52.0381 
  97   0.0000       1.956007        53.2257 
  98   0.0000       1.996629        54.3310 
  99   0.0000       2.017539        54.9000 
 100   0.0000       2.033364        55.3306 
 101   0.0000       2.056955        55.9726 
 102   0.0000       2.085769        56.7567 
 103   0.0000       2.136461        58.1361 
 104   0.0000       2.191670        59.6384 
 105   0.0000       2.269414        61.7539 
 106   0.0000       2.280388        62.0525 
 107   0.0000       2.311093        62.8880 
 108   0.0000       2.322835        63.2075 
 109   0.0000       2.378033        64.7096 
 110   0.0000       2.424417        65.9717 
 111   0.0000       2.516858        68.4872 
 112   0.0000       2.547118        69.3106 
 113   0.0000       2.596030        70.6416 
 114   0.0000       2.674834        72.7859 
 115   0.0000       2.692978        73.2796 
 116   0.0000       2.733276        74.3762 
 117   0.0000       2.737923        74.5027 
 118   0.0000       2.753463        74.9255 
 119   0.0000       2.805322        76.3367 
 120   0.0000       2.816006        76.6274 
 121   0.0000       2.861407        77.8628 
 122   0.0000       2.918639        79.4202 
 123   0.0000       3.004324        81.7518 
 124   0.0000       3.034592        82.5754 
 125   0.0000       3.072705        83.6125 
 126   0.0000       3.084987        83.9468 
 127   0.0000       3.117192        84.8231 
 128   0.0000       3.168285        86.2134 
 129   0.0000       3.227424        87.8227 
 130   0.0000       3.428566        93.2960 
 131   0.0000       3.450722        93.8989 
 132   0.0000       3.783525       102.9549 

                    ********************************
                    * MULLIKEN POPULATION ANALYSIS *
                    ********************************

--------------------------------------------
MULLIKEN ATOMIC CHARGES AND SPIN POPULATIONS
--------------------------------------------
   0 O :   -0.261847    0.839296
   1 O :   -0.353273    0.014783
   2 C :    0.067027   -0.020391
   3 C :    0.038842    0.142237
   4 C :    0.019632   -0.102832
   5 C :   -0.099016    0.161592
   6 C :    0.097326   -0.011379
   7 H :    0.166929   -0.019739
   8 H :    0.049110    0.002628
   9 H :    0.067112   -0.006559
  10 H :    0.036714    0.004009
  11 H :    0.032002   -0.007828
  12 H :    0.063976    0.003109
  13 H :    0.075469    0.001076
Sum of atomic charges         :   -0.0000000
Sum of atomic spin populations:    1.0000000

-----------------------------------------------------
MULLIKEN REDUCED ORBITAL CHARGES AND SPIN POPULATIONS
-----------------------------------------------------
CHARGE
  0 O s       :     3.854712  s :     3.854712
      pz      :     1.396784  p :     4.399725
      px      :     1.324350
      py      :     1.678590
      dz2     :     0.002622  d :     0.007411
      dxz     :     0.000555
      dyz     :     0.002782
      dx2y2   :     0.000712
      dxy     :     0.000739
  1 O s       :     3.904802  s :     3.904802
      pz      :     1.337231  p :     4.431381
      px      :     1.567207
      py      :     1.526943
      dz2     :     0.005844  d :     0.017091
      dxz     :     0.003037
      dyz     :     0.004084
      dx2y2   :     0.001497
      dxy     :     0.002629
  2 C s       :     3.158847  s :     3.158847
      pz      :     0.756775  p :     2.693723
      px      :     0.983045
      py      :     0.953903
      dz2     :     0.023946  d :     0.080404
      dxz     :     0.017502
      dyz     :     0.019998
      dx2y2   :     0.006998
      dxy     :     0.011960
  3 C s       :     3.237440  s :     3.237440
      pz      :     0.932571  p :     2.672437
      px      :     0.906035
      py      :     0.833831
      dz2     :     0.005193  d :     0.051281
      dxz     :     0.010084
      dyz     :     0.009148
      dx2y2   :     0.011850
      dxy     :     0.015006
  4 C s       :     3.154868  s :     3.154868
      pz      :     0.986043  p :     2.790323
      px      :     0.846380
      py      :     0.957900
      dz2     :     0.005222  d :     0.035178
      dxz     :     0.006818
      dyz     :     0.005255
      dx2y2   :     0.007934
      dxy     :     0.009948
  5 C s       :     3.227843  s :     3.227843
      pz      :     0.947034  p :     2.835579
      px      :     0.967271
      py      :     0.921274
      dz2     :     0.006902  d :     0.035594
      dxz     :     0.005086
      dyz     :     0.005522
      dx2y2   :     0.008059
      dxy     :     0.010024
  6 C s       :     2.957023  s :     2.957023
      pz      :     0.954035  p :     2.911780
      px      :     0.935288
      py      :     1.022457
      dz2     :     0.008139  d :     0.033871
      dxz     :     0.006566
      dyz     :     0.004920
      dx2y2   :     0.006555
      dxy     :     0.007690
  7 H s       :     0.765793  s :     0.765793
      pz      :     0.029953  p :     0.067279
      px      :     0.014012
      py      :     0.023314
  8 H s       :     0.929506  s :     0.929506
      pz      :     0.002952  p :     0.021384
      px      :     0.013166
      py      :     0.005266
  9 H s       :     0.910254  s :     0.910254
      pz      :     0.006563  p :     0.022634
      px      :     0.002763
      py      :     0.013308
 10 H s       :     0.939371  s :     0.939371
      pz      :     0.007628  p :     0.023915
      px      :     0.012068
      py      :     0.004220
 11 H s       :     0.943085  s :     0.943085
      pz      :     0.004789  p :     0.024913
      px      :     0.008133
      py      :     0.011990
 12 H s       :     0.912724  s :     0.912724
      pz      :     0.013637  p :     0.023300
      px      :     0.004726
      py      :     0.004937
 13 H s       :     0.901374  s :     0.901374
      pz      :     0.004310  p :     0.023157
      px      :     0.007014
      py      :     0.011832

SPIN
  0 O s       :     0.009762  s :     0.009762
      pz      :     0.073608  p :     0.829294
      px      :     0.598357
      py      :     0.157329
      dz2     :    -0.000181  d :     0.000240
      dxz     :     0.000288
      dyz     :     0.000063
      dx2y2   :     0.000068
      dxy     :     0.000001
  1 O s       :     0.018158  s :     0.018158
      pz      :     0.005878  p :    -0.004808
      px      :     0.010962
      py      :    -0.021648
      dz2     :     0.000110  d :     0.001432
      dxz     :     0.000303
      dyz     :     0.000030
      dx2y2   :     0.000103
      dxy     :     0.000886
  2 C s       :    -0.004327  s :    -0.004327
      pz      :    -0.006388  p :    -0.017096
      px      :    -0.007358
      py      :    -0.003350
      dz2     :    -0.000148  d :     0.001032
      dxz     :     0.001209
      dyz     :     0.000050
      dx2y2   :     0.000057
      dxy     :    -0.000136
  3 C s       :     0.016715  s :     0.016715
      pz      :     0.074984  p :     0.126572
      px      :     0.016821
      py      :     0.034767
      dz2     :    -0.000118  d :    -0.001050
      dxz     :    -0.000662
      dyz     :    -0.000259
      dx2y2   :     0.000113
      dxy     :    -0.000125
  4 C s       :    -0.017286  s :    -0.017286
      pz      :    -0.052694  p :    -0.087504
      px      :    -0.008952
      py      :    -0.025858
      dz2     :     0.000509  d :     0.001958
      dxz     :     0.000454
      dyz     :     0.000424
      dx2y2   :     0.000427
      dxy     :     0.000145
  5 C s       :     0.021770  s :     0.021770
      pz      :     0.086986  p :     0.140570
      px      :     0.026161
      py      :     0.027424
      dz2     :    -0.000255  d :    -0.000748
      dxz     :    -0.000121
      dyz     :    -0.000223
      dx2y2   :    -0.000095
      dxy     :    -0.000054
  6 C s       :    -0.003513  s :    -0.003513
      pz      :    -0.002227  p :    -0.008445
      px      :    -0.005651
      py      :    -0.000567
      dz2     :     0.000305  d :     0.000578
      dxz     :     0.000107
      dyz     :     0.000063
      dx2y2   :     0.000047
      dxy     :     0.000056
  7 H s       :    -0.024666  s :    -0.024666
      pz      :     0.001065  p :     0.004926
      px      :     0.003660
      py      :     0.000201
  8 H s       :     0.002707  s :     0.002707
      pz      :    -0.000042  p :    -0.000079
      px      :    -0.000024
      py      :    -0.000013
  9 H s       :    -0.007216  s :    -0.007216
      pz      :     0.000426  p :     0.000657
      px      :     0.000019
      py      :     0.000211
 10 H s       :     0.004429  s :     0.004429
      pz      :    -0.000235  p :    -0.000420
      px      :    -0.000064
      py      :    -0.000121
 11 H s       :    -0.008718  s :    -0.008718
      pz      :     0.000554  p :     0.000889
      px      :     0.000196
      py      :     0.000138
 12 H s       :     0.003096  s :     0.003096
      pz      :    -0.000032  p :     0.000012
      px      :     0.000041
      py      :     0.000004
 13 H s       :     0.001094  s :     0.001094
      pz      :    -0.000010  p :    -0.000018
      px      :    -0.000011
      py      :     0.000003


                     *******************************
                     * LOEWDIN POPULATION ANALYSIS *
                     *******************************

-------------------------------------------
LOEWDIN ATOMIC CHARGES AND SPIN POPULATIONS
-------------------------------------------
   0 O :   -0.167710    0.793479
   1 O :   -0.152499    0.040872
   2 C :    0.050981   -0.008201
   3 C :    0.080259    0.108920
   4 C :   -0.053143   -0.065469
   5 C :    0.020249    0.124248
   6 C :   -0.045153   -0.002681
   7 H :    0.045661    0.003976
   8 H :    0.025556    0.001230
   9 H :    0.040068   -0.000588
  10 H :    0.034992    0.000214
  11 H :    0.025849    0.000009
  12 H :    0.042804    0.003082
  13 H :    0.052087    0.000909

----------------------------------------------------
LOEWDIN REDUCED ORBITAL CHARGES AND SPIN POPULATIONS
----------------------------------------------------
CHARGE
  0 O s       :     3.673813  s :     3.673813
      pz      :     1.472517  p :     4.480460
      px      :     1.321912
      py      :     1.686030
      dz2     :     0.004955  d :     0.013437
      dxz     :     0.000463
      dyz     :     0.005631
      dx2y2   :     0.001150
      dxy     :     0.001238
  1 O s       :     3.613771  s :     3.613771
      pz      :     1.420385  p :     4.509631
      px      :     1.543105
      py      :     1.546141
      dz2     :     0.010164  d :     0.029097
      dxz     :     0.004549
      dyz     :     0.007339
      dx2y2   :     0.002048
      dxy     :     0.004998
  2 C s       :     2.846258  s :     2.846258
      pz      :     0.877437  p :     2.923000
      px      :     1.041465
      py      :     1.004098
      dz2     :     0.050477  d :     0.179761
      dxz     :     0.039534
      dyz     :     0.045955
      dx2y2   :     0.014816
      dxy     :     0.028979
  3 C s       :     2.894919  s :     2.894919
      pz      :     0.984425  p :     2.910071
      px      :     0.975335
      py      :     0.950311
      dz2     :     0.011551  d :     0.114751
      dxz     :     0.022787
      dyz     :     0.018607
      dx2y2   :     0.027645
      dxy     :     0.034161
  4 C s       :     2.873291  s :     2.873291
      pz      :     1.018029  p :     3.087929
      px      :     1.022095
      py      :     1.047805
      dz2     :     0.011170  d :     0.091923
      dxz     :     0.016938
      dyz     :     0.014525
      dx2y2   :     0.022160
      dxy     :     0.027129
  5 C s       :     2.883495  s :     2.883495
      pz      :     0.966881  p :     3.008959
      px      :     0.994641
      py      :     1.047437
      dz2     :     0.013739  d :     0.087298
      dxz     :     0.012196
      dyz     :     0.014564
      dx2y2   :     0.022737
      dxy     :     0.024061
  6 C s       :     2.846748  s :     2.846748
      pz      :     1.038934  p :     3.110874
      px      :     1.015734
      py      :     1.056206
      dz2     :     0.021681  d :     0.087532
      dxz     :     0.016842
      dyz     :     0.012357
      dx2y2   :     0.017138
      dxy     :     0.019514
  7 H s       :     0.769543  s :     0.769543
      pz      :     0.085705  p :     0.184796
      px      :     0.037244
      py      :     0.061847
  8 H s       :     0.906278  s :     0.906278
      pz      :     0.011976  p :     0.068166
      px      :     0.038250
      py      :     0.017940
  9 H s       :     0.890143  s :     0.890143
      pz      :     0.020071  p :     0.069789
      px      :     0.010914
      py      :     0.038803
 10 H s       :     0.895391  s :     0.895391
      pz      :     0.021866  p :     0.069617
      px      :     0.034741
      py      :     0.013011
 11 H s       :     0.898970  s :     0.898970
      pz      :     0.015577  p :     0.075181
      px      :     0.026060
      py      :     0.033543
 12 H s       :     0.889263  s :     0.889263
      pz      :     0.039347  p :     0.067934
      px      :     0.013745
      py      :     0.014842
 13 H s       :     0.880307  s :     0.880307
      pz      :     0.012065  p :     0.067606
      px      :     0.020899
      py      :     0.034642

SPIN
  0 O s       :     0.009611  s :     0.009611
      pz      :     0.065647  p :     0.783805
      px      :     0.570242
      py      :     0.147916
      dz2     :    -0.000150  d :     0.000063
      dxz     :     0.000171
      dyz     :    -0.000071
      dx2y2   :     0.000095
      dxy     :     0.000018
  1 O s       :     0.026839  s :     0.026839
      pz      :     0.006143  p :     0.011334
      px      :     0.023522
      py      :    -0.018331
      dz2     :     0.000281  d :     0.002698
      dxz     :     0.000309
      dyz     :     0.000071
      dx2y2   :     0.000243
      dxy     :     0.001794
  2 C s       :    -0.001164  s :    -0.001164
      pz      :    -0.002779  p :    -0.009922
      px      :    -0.003556
      py      :    -0.003587
      dz2     :    -0.000094  d :     0.002885
      dxz     :     0.002870
      dyz     :     0.000141
      dx2y2   :     0.000186
      dxy     :    -0.000218
  3 C s       :     0.004879  s :     0.004879
      pz      :     0.068396  p :     0.106989
      px      :     0.012004
      py      :     0.026589
      dz2     :    -0.000124  d :    -0.002948
      dxz     :    -0.001549
      dyz     :    -0.000604
      dx2y2   :     0.000031
      dxy     :    -0.000702
  4 C s       :    -0.003136  s :    -0.003136
      pz      :    -0.041485  p :    -0.067116
      px      :    -0.006773
      py      :    -0.018858
      dz2     :     0.001090  d :     0.004783
      dxz     :     0.000988
      dyz     :     0.000961
      dx2y2   :     0.001272
      dxy     :     0.000472
  5 C s       :     0.004616  s :     0.004616
      pz      :     0.077393  p :     0.121371
      px      :     0.023941
      py      :     0.020038
      dz2     :    -0.000641  d :    -0.001740
      dxz     :    -0.000145
      dyz     :    -0.000428
      dx2y2   :    -0.000290
      dxy     :    -0.000236
  6 C s       :    -0.000608  s :    -0.000608
      pz      :    -0.000848  p :    -0.003480
      px      :    -0.002472
      py      :    -0.000160
      dz2     :     0.000727  d :     0.001408
      dxz     :     0.000276
      dyz     :     0.000163
      dx2y2   :     0.000123
      dxy     :     0.000118
  7 H s       :    -0.016065  s :    -0.016065
      pz      :     0.005470  p :     0.020041
      px      :     0.012464
      py      :     0.002107
  8 H s       :     0.001499  s :     0.001499
      pz      :    -0.000062  p :    -0.000269
      px      :    -0.000062
      py      :    -0.000145
  9 H s       :    -0.003594  s :    -0.003594
      pz      :     0.001667  p :     0.003005
      px      :     0.000255
      py      :     0.001083
 10 H s       :     0.001998  s :     0.001998
      pz      :    -0.000986  p :    -0.001783
      px      :    -0.000315
      py      :    -0.000482
 11 H s       :    -0.003762  s :    -0.003762
      pz      :     0.002174  p :     0.003770
      px      :     0.000820
      py      :     0.000777
 12 H s       :     0.003151  s :     0.003151
      pz      :    -0.000106  p :    -0.000069
      px      :     0.000036
      py      :     0.000001
 13 H s       :     0.001022  s :     0.001022
      pz      :    -0.000030  p :    -0.000113
      px      :    -0.000035
      py      :    -0.000047


                      *****************************
                      * MAYER POPULATION ANALYSIS *
                      *****************************

  NA   - Mulliken gross atomic population
  ZA   - Total nuclear charge
  QA   - Mulliken gross atomic charge
  VA   - Mayer's total valence
  BVA  - Mayer's bonded valence
  FA   - Mayer's free valence

  ATOM       NA         ZA         QA         VA         BVA        FA
  0 O      8.2618     8.0000    -0.2618     2.0017     1.3357     0.6660
  1 O      8.3533     8.0000    -0.3533     1.9900     1.9790     0.0109
  2 C      5.9330     6.0000     0.0670     3.9510     3.9508     0.0003
  3 C      5.9612     6.0000     0.0388     3.8423     3.8282     0.0141
  4 C      5.9804     6.0000     0.0196     3.8118     3.8059     0.0058
  5 C      6.0990     6.0000    -0.0990     3.9568     3.9395     0.0172
  6 C      5.9027     6.0000     0.0973     3.7965     3.7964     0.0001
  7 H      0.8331     1.0000     0.1669     1.0150     1.0140     0.0010
  8 H      0.9509     1.0000     0.0491     1.0024     1.0024     0.0000
  9 H      0.9329     1.0000     0.0671     0.9881     0.9881     0.0001
 10 H      0.9633     1.0000     0.0367     0.9879     0.9879     0.0000
 11 H      0.9680     1.0000     0.0320     0.9915     0.9914     0.0001
 12 H      0.9360     1.0000     0.0640     0.9790     0.9790     0.0000
 13 H      0.9245     1.0000     0.0755     0.9899     0.9899     0.0000

  Mayer bond orders larger than 0.100000
B(  0-O ,  1-O ) :   0.2124 B(  0-O ,  7-H ) :   0.9891 B(  1-O ,  2-C ) :   0.9081 
B(  1-O ,  3-C ) :   0.7544 B(  2-C ,  3-C ) :   0.9884 B(  2-C ,  6-C ) :   1.0059 
B(  2-C ,  8-H ) :   0.9555 B(  3-C ,  4-C ) :   1.0374 B(  3-C ,  9-H ) :   0.9866 
B(  4-C ,  5-C ) :   1.7697 B(  4-C , 10-H ) :   0.9961 B(  5-C ,  6-C ) :   0.9984 
B(  5-C , 11-H ) :   0.9802 B(  6-C , 12-H ) :   0.9294 B(  6-C , 13-H ) :   0.9265 



------------------
HIRSHFELD ANALYSIS
------------------

Total integrated alpha density =     27.000005384
Total integrated beta density  =     26.000003457

  ATOM     CHARGE      SPIN    
   0 O   -0.260123    0.765398
   1 O   -0.152133    0.054016
   2 C    0.052693   -0.000328
   3 C    0.045460    0.083953
   4 C   -0.048567   -0.036482
   5 C   -0.008189    0.095894
   6 C   -0.038493    0.004278
   7 H    0.134543    0.019569
   8 H    0.044167    0.001454
   9 H    0.058323    0.003742
  10 H    0.045309   -0.002718
  11 H    0.044052    0.006528
  12 H    0.036556    0.003454
  13 H    0.046393    0.001243

  TOTAL  -0.000009    1.000002

-------
TIMINGS
-------

Total SCF time: 0 days 0 hours 1 min 7 sec 

Total time                  ....      67.809 sec
Sum of individual times     ....      67.646 sec  ( 99.8%)

Fock matrix formation       ....      65.714 sec  ( 96.9%)
  Split-RI-J                ....       3.907 sec  (  5.9% of F)
  Chain of spheres X        ....      45.145 sec  ( 68.7% of F)
  XC integration            ....      16.664 sec  ( 25.4% of F)
    Basis function eval.    ....       4.802 sec  ( 28.8% of XC)
    Density eval.           ....       4.523 sec  ( 27.1% of XC)
    XC-Functional eval.     ....       1.653 sec  (  9.9% of XC)
    XC-Potential eval.      ....       5.310 sec  ( 31.9% of XC)
Diagonalization             ....       0.105 sec  (  0.2%)
Density matrix formation    ....       0.009 sec  (  0.0%)
Population analysis         ....       0.402 sec  (  0.6%)
Initial guess               ....       0.218 sec  (  0.3%)
Orbital Transformation      ....       0.000 sec  (  0.0%)
Orbital Orthonormalization  ....       0.000 sec  (  0.0%)
DIIS solution               ....       0.027 sec  (  0.0%)
Grid generation             ....       1.171 sec  (  1.7%)

Maximum memory used throughout the entire SCF-calculation: 63.6 MB


-------------------------------------------------------------------------------
                          DFT DISPERSION CORRECTION                            
                                                                               
                              DFTD3 V3.1  Rev 1                                
                          USING Becke-Johnson damping                          
-------------------------------------------------------------------------------
The PBE0 functional is recognized
Active option DFTDOPT                   ...         4   

molecular C6(AA) [au] = 1740.534594 


            DFT-D V3
 parameters
 s6 scaling factor         :     1.0000 
 a1 scaling factor         :     0.4145 
 s8 scaling factor         :     1.2177 
 a2 scaling factor         :     4.8593 
 ad hoc parameters k1-k3   :    16.0000     1.3333    -4.0000 

 Edisp/kcal,au: -6.161482326463  -0.009818946046 
 E6   /kcal   :  -3.918444230 
 E8   /kcal   :  -2.243038097 
 % E8         :  36.404195905 

-------------------------   ----------------
Dispersion correction           -0.009818946
-------------------------   ----------------


-------------------------   --------------------
FINAL SINGLE POINT ENERGY      -344.359167240107
-------------------------   --------------------

------------------------------------------------------------------------------
                         ORCA SCF GRADIENT CALCULATION
------------------------------------------------------------------------------

 ... reading COSX grid (gridx3)
Gradient of the Kohn-Sham DFT energy:
Kohn-Sham wavefunction type      ... UKS
Hartree-Fock exchange scaling    ...    0.250
Number of operators              ...    2
Number of atoms                  ...   14
Basis set dimensions             ...  133
Integral neglect threshold       ... 2.5e-11
Integral primitive cutoff        ... 2.5e-12
SHARK Integral package           ... ON

Nuc. rep. gradient       (SHARK) ... done (  0.0 sec)
HCore & Overlap gradient (SHARK) ... done (  0.1 sec)
RI-J gradient            (SHARK) ... done (  0.6 sec)
COSX-gradient                    ... done (  7.1 sec)
Exchange-correlation gradient    ... done
Dispersion correction            ... done

------------------
CARTESIAN GRADIENT
------------------

   1   O   :    0.025514300    0.010520676   -0.004636381
   2   O   :   -0.026557893   -0.042571095    0.007201050
   3   C   :    0.015159009    0.000577775    0.005791939
   4   C   :    0.004159621    0.010436976   -0.027597827
   5   C   :   -0.007881856   -0.002990671   -0.001406993
   6   C   :    0.016093732   -0.009595672    0.015025308
   7   C   :   -0.012799891    0.008830576   -0.007173067
   8   H   :    0.003044804    0.001163684   -0.002760701
   9   H   :   -0.003164570    0.002399841    0.002591724
  10   H   :   -0.000166157    0.008566256    0.005804340
  11   H   :    0.002258611    0.001032192   -0.000357044
  12   H   :   -0.015852597    0.012861383    0.005057606
  13   H   :    0.004003841   -0.000897131    0.002216772
  14   H   :   -0.004120393   -0.000499794    0.000367046

Difference to translation invariance:
           :   -0.0003094382   -0.0001650025    0.0001237712

Difference to rotation invariance:
           :    0.0001281540   -0.0003744250    0.0002473472

Norm of the cartesian gradient     ...    0.0779928644
RMS gradient                       ...    0.0120345602
MAX gradient                       ...    0.0425710948

-------
TIMINGS
-------

Total SCF gradient time            ...       12.083 sec

One electron gradient       ....       0.100 sec  (  0.8%)
RI-J Coulomb gradient       ....       0.623 sec  (  5.2%)
COSX gradient               ....       7.070 sec  ( 58.5%)
XC gradient                 ....       3.968 sec  ( 32.8%)

Maximum memory used throughout the entire SCFGRAD-calculation: 50.4 MB

                            ***************************************
                            *     ORCA property calculations      *
                            ***************************************

                                    ---------------------
                                    Active property flags
                                    ---------------------
   (+) Dipole Moment


------------------------------------------------------------------------------
                       ORCA ELECTRIC PROPERTIES CALCULATION
------------------------------------------------------------------------------

Dipole Moment Calculation                       ... on
Quadrupole Moment Calculation                   ... off
Polarizability Calculation                      ... off
GBWName                                         ... 8_2_orca.gbw
Electron density                                ... 8_2_orca.scfp
The origin for moment calculation is the CENTER OF MASS  = (-0.305112, -0.056096  0.348620)

-------------
DIPOLE MOMENT
-------------
                                X             Y             Z
Electronic contribution:     -0.65296       0.55840       1.63760
Nuclear contribution   :      1.37261       0.18167      -1.96367
                        -----------------------------------------
Total Dipole Moment    :      0.71966       0.74007      -0.32607
                        -----------------------------------------
Magnitude (a.u.)       :      1.08256
Magnitude (Debye)      :      2.75164



--------------------
Rotational spectrum 
--------------------
 
Rotational constants in cm-1:     0.173320     0.072623     0.063434 
Rotational constants in MHz :  5195.991687  2177.172637  1901.718154 

 Dipole components along the rotational axes: 
x,y,z [a.u.] :     0.886588    -0.443840     0.434622 
x,y,z [Debye]:     2.253527    -1.128153     1.104721 

 

Timings for individual modules:

Sum of individual times         ...       80.127 sec (=   1.335 min)
GTO integral calculation        ...        0.164 sec (=   0.003 min)   0.2 %
SCF iterations                  ...       67.851 sec (=   1.131 min)  84.7 %
SCF Gradient evaluation         ...       12.112 sec (=   0.202 min)  15.1 %
                             ****ORCA TERMINATED NORMALLY****
TOTAL RUN TIME: 0 days 0 hours 1 minutes 20 seconds 285 msec
