
                                 *****************
                                 * O   R   C   A *
                                 *****************

                                            #,                                       
                                            ###                                      
                                            ####                                     
                                            #####                                    
                                            ######                                   
                                           ########,                                 
                                     ,,################,,,,,                         
                               ,,#################################,,                 
                          ,,##########################################,,             
                       ,#########################################, ''#####,          
                    ,#############################################,,   '####,        
                  ,##################################################,,,,####,       
                ,###########''''           ''''###############################       
              ,#####''   ,,,,##########,,,,          '''####'''          '####       
            ,##' ,,,,###########################,,,                        '##       
           ' ,,###''''                  '''############,,,                           
         ,,##''                                '''############,,,,        ,,,,,,###''
      ,#''                                            '''#######################'''  
     '                                                          ''''####''''         
             ,#######,   #######,   ,#######,      ##                                
            ,#'     '#,  ##    ##  ,#'     '#,    #''#        ######   ,####,        
            ##       ##  ##   ,#'  ##            #'  '#       #        #'  '#        
            ##       ##  #######   ##           ,######,      #####,   #    #        
            '#,     ,#'  ##    ##  '#,     ,#' ,#      #,         ##   #,  ,#        
             '#######'   ##     ##  '#######'  #'      '#     #####' # '####'        



                  #######################################################
                  #                        -***-                        #
                  #          Department of theory and spectroscopy      #
                  #    Directorship and core code : Frank Neese         #
                  #        Max Planck Institute fuer Kohlenforschung    #
                  #                Kaiser Wilhelm Platz 1               #
                  #                 D-45470 Muelheim/Ruhr               #
                  #                      Germany                        #
                  #                                                     #
                  #                  All rights reserved                #
                  #                        -***-                        #
                  #######################################################


                         Program Version 5.0.4 -  RELEASE  -


 With contributions from (in alphabetic order):
   Daniel Aravena         : Magnetic Suceptibility
   Michael Atanasov       : Ab Initio Ligand Field Theory (pilot matlab implementation)
   Alexander A. Auer      : GIAO ZORA, VPT2 properties, NMR spectrum
   Ute Becker             : Parallelization
   Giovanni Bistoni       : ED, misc. LED, open-shell LED, HFLD
   Martin Brehm           : Molecular dynamics
   Dmytro Bykov           : SCF Hessian
   Vijay G. Chilkuri      : MRCI spin determinant printing, contributions to CSF-ICE
   Dipayan Datta          : RHF DLPNO-CCSD density
   Achintya Kumar Dutta   : EOM-CC, STEOM-CC
   Dmitry Ganyushin       : Spin-Orbit,Spin-Spin,Magnetic field MRCI
   Miquel Garcia          : C-PCM and meta-GGA Hessian, CC/C-PCM, Gaussian charge scheme
   Yang Guo               : DLPNO-NEVPT2, F12-NEVPT2, CIM, IAO-localization
   Andreas Hansen         : Spin unrestricted coupled pair/coupled cluster methods
   Benjamin Helmich-Paris : MC-RPA, TRAH-SCF, COSX integrals
   Lee Huntington         : MR-EOM, pCC
   Robert Izsak           : Overlap fitted RIJCOSX, COSX-SCS-MP3, EOM
   Marcus Kettner         : VPT2
   Christian Kollmar      : KDIIS, OOCD, Brueckner-CCSD(T), CCSD density, CASPT2, CASPT2-K
   Simone Kossmann        : Meta GGA functionals, TD-DFT gradient, OOMP2, MP2 Hessian
   Martin Krupicka        : Initial AUTO-CI
   Lucas Lang             : DCDCAS
   Marvin Lechner         : AUTO-CI (C++ implementation), FIC-MRCC
   Dagmar Lenk            : GEPOL surface, SMD
   Dimitrios Liakos       : Extrapolation schemes; Compound Job, initial MDCI parallelization
   Dimitrios Manganas     : Further ROCIS development; embedding schemes
   Dimitrios Pantazis     : SARC Basis sets
   Anastasios Papadopoulos: AUTO-CI, single reference methods and gradients
   Taras Petrenko         : DFT Hessian,TD-DFT gradient, ASA, ECA, R-Raman, ABS, FL, XAS/XES, NRVS
   Peter Pinski           : DLPNO-MP2, DLPNO-MP2 Gradient
   Christoph Reimann      : Effective Core Potentials
   Marius Retegan         : Local ZFS, SOC
   Christoph Riplinger    : Optimizer, TS searches, QM/MM, DLPNO-CCSD(T), (RO)-DLPNO pert. Triples
   Tobias Risthaus        : Range-separated hybrids, TD-DFT gradient, RPA, STAB
   Michael Roemelt        : Original ROCIS implementation
   Masaaki Saitow         : Open-shell DLPNO-CCSD energy and density
   Barbara Sandhoefer     : DKH picture change effects
   Avijit Sen             : IP-ROCIS
   Kantharuban Sivalingam : CASSCF convergence, NEVPT2, FIC-MRCI
   Bernardo de Souza      : ESD, SOC TD-DFT
   Georgi Stoychev        : AutoAux, RI-MP2 NMR, DLPNO-MP2 response
   Willem Van den Heuvel  : Paramagnetic NMR
   Boris Wezisla          : Elementary symmetry handling
   Frank Wennmohs         : Technical directorship


 We gratefully acknowledge several colleagues who have allowed us to
 interface, adapt or use parts of their codes:
   Stefan Grimme, W. Hujo, H. Kruse, P. Pracht,  : VdW corrections, initial TS optimization,
                  C. Bannwarth, S. Ehlert          DFT functionals, gCP, sTDA/sTD-DF
   Ed Valeev, F. Pavosevic, A. Kumar             : LibInt (2-el integral package), F12 methods
   Garnet Chan, S. Sharma, J. Yang, R. Olivares  : DMRG
   Ulf Ekstrom                                   : XCFun DFT Library
   Mihaly Kallay                                 : mrcc  (arbitrary order and MRCC methods)
   Jiri Pittner, Ondrej Demel                    : Mk-CCSD
   Frank Weinhold                                : gennbo (NPA and NBO analysis)
   Christopher J. Cramer and Donald G. Truhlar   : smd solvation model
   Lars Goerigk                                  : TD-DFT with DH, B97 family of functionals
   V. Asgeirsson, H. Jonsson                     : NEB implementation
   FAccTs GmbH                                   : IRC, NEB, NEB-TS, DLPNO-Multilevel, CI-OPT
                                                   MM, QMMM, 2- and 3-layer-ONIOM, Crystal-QMMM,
                                                   LR-CPCM, SF, NACMEs, symmetry and pop. for TD-DFT,
                                                   nearIR, NL-DFT gradient (VV10), updates on ESD,
                                                   ML-optimized integration grids
   S Lehtola, MJT Oliveira, MAL Marques          : LibXC Library
   Liviu Ungur et al                             : ANISO software


 Your calculation uses the libint2 library for the computation of 2-el integrals
 For citations please refer to: http://libint.valeyev.net

 Your ORCA version has been built with support for libXC version: 5.1.0
 For citations please refer to: https://tddft.org/programs/libxc/

 This ORCA versions uses:
   CBLAS   interface :  Fast vector & matrix operations
   LAPACKE interface :  Fast linear algebra routines
   SCALAPACK package :  Parallel linear algebra routines
   Shared memory     :  Shared parallel matrices
   BLAS/LAPACK       :  OpenBLAS 0.3.15  USE64BITINT DYNAMIC_ARCH NO_AFFINITY SkylakeX SINGLE_THREADED
        Core in use  :  SkylakeX
   Copyright (c) 2011-2014, The OpenBLAS Project


Your calculation utilizes the atom-pairwise dispersion correction
with the Becke-Johnson damping scheme (D3BJ)
Cite in your paper:
S.Grimme, S.Ehrlich, L.Goerigk, J Comput Chem, (2011), 32, 1456–1465 
S.Grimme, J.Antony, S.Ehrlich and H.Krieg, J.Chem.Phys., 132, (2010), 154104 
   

================================================================================

----- Orbital basis set information -----
Your calculation utilizes the basis: def2-SVP
   F. Weigend and R. Ahlrichs, Phys. Chem. Chem. Phys. 7, 3297 (2005).

----- AuxJ basis set information -----
Your calculation utilizes the auxiliary basis: def2/J
   F. Weigend, Phys. Chem. Chem. Phys. 8, 1057 (2006).

================================================================================
                                        WARNINGS
                       Please study these warnings very carefully!
================================================================================


WARNING: Geometry Optimization
  ===> : Switching off AutoStart
         For restart on a previous wavefunction, please use MOREAD

INFO   : the flag for use of the SHARK integral package has been found!

================================================================================
                                       INPUT FILE
================================================================================
NAME = p0_C5H8O_opt_orca.inp
|  1> ! Opt PBE0 RIJCOSX D3BJ def2-SVP def2/J 
|  2> %output 
|  3> xyzfile=True 
|  4> end 
|  5> %scf 
|  6> maxiter 250 
|  7> end
|  8> %output
|  9> Print[P_Hirshfeld] = 1
| 10> end
| 11> % maxcore
| 12> 4000
| 13> %pal nprocs 8
| 14> end
| 15> *xyz 0 1
| 16> C    1.15129797   0.49966336   0.14623320 
| 17> C    0.39994484  -0.45619375   1.10849364 
| 18> C   -0.98344928  -0.34281578   0.44482078 
| 19> C   -0.68353185  -0.52017029  -1.05105944 
| 20> C   -0.04945907   0.84627618  -0.75097589 
| 21> O   -1.09750706   1.07775886   0.21476971 
| 22> H    1.54079763   1.39399768   0.65270391 
| 23> H    1.97069717   0.01866712  -0.40899817 
| 24> H    0.78832568  -1.48588527   1.10623304 
| 25> H    0.37643295  -0.08653653   2.14332775 
| 26> H   -1.84877834  -0.79775866   0.94737533 
| 27> H   -1.58676289  -0.43195800  -1.66914716 
| 28> H   -0.04318862  -1.35425572  -1.38025439 
| 29> H    0.06518086   1.63921079  -1.50362230 
| 30> *
| 31> 
| 32>                          ****END OF INPUT****
================================================================================

                       *****************************
                       * Geometry Optimization Run *
                       *****************************

Geometry optimization settings:
Update method            Update   .... BFGS
Choice of coordinates    CoordSys .... Z-matrix Internals
Initial Hessian          InHess   .... Almoef's Model

Convergence Tolerances:
Energy Change            TolE     ....  5.0000e-06 Eh
Max. Gradient            TolMAXG  ....  3.0000e-04 Eh/bohr
RMS Gradient             TolRMSG  ....  1.0000e-04 Eh/bohr
Max. Displacement        TolMAXD  ....  4.0000e-03 bohr
RMS Displacement         TolRMSD  ....  2.0000e-03 bohr
Strict Convergence                ....  False
------------------------------------------------------------------------------
                        ORCA OPTIMIZATION COORDINATE SETUP
------------------------------------------------------------------------------

The optimization will be done in new redundant internal coordinates
Making redundant internal coordinates   ...  (new redundants) done
Evaluating the initial hessian          ...  (Almloef) done
Evaluating the coordinates              ...  done
Calculating the B-matrix                .... done
Calculating the G-matrix                .... done
Diagonalizing the G-matrix              .... done
The first mode is                       ....   94
The number of degrees of freedom        ....   36

    -----------------------------------------------------------------
                    Redundant Internal Coordinates


    -----------------------------------------------------------------
         Definition                    Initial Value    Approx d2E/dq
    -----------------------------------------------------------------
      1. B(C   1,C   0)                  1.5505         0.346438   
      2. B(C   2,C   1)                  1.5385         0.362041   
      3. B(C   3,C   2)                  1.5359         0.365533   
      4. B(C   4,C   0)                  1.5385         0.362107   
      5. B(C   4,C   2)                  1.9277         0.086656   
      6. B(C   4,C   3)                  1.5360         0.365440   
      7. B(O   5,C   2)                  1.4436         0.459588   
      8. B(O   5,C   4)                  1.4438         0.459186   
      9. B(H   6,C   0)                  1.0991         0.348240   
     10. B(H   7,C   0)                  1.1005         0.346501   
     11. B(H   8,C   1)                  1.1005         0.346469   
     12. B(H   9,C   1)                  1.0991         0.348226   
     13. B(H  10,C   2)                  1.0992         0.348082   
     14. B(H  11,C   3)                  1.0980         0.349650   
     15. B(H  12,C   3)                  1.1019         0.344741   
     16. B(H  13,C   4)                  1.0993         0.348061   
     17. A(C   4,C   0,H   7)          112.6667         0.320637   
     18. A(C   1,C   0,H   7)          113.8585         0.318329   
     19. A(C   1,C   0,C   4)           97.0424         0.356812   
     20. A(H   6,C   0,H   7)          108.9215         0.287577   
     21. A(C   1,C   0,H   6)          112.7906         0.318589   
     22. A(C   4,C   0,H   6)          111.2225         0.320900   
     23. A(C   2,C   1,H   9)          111.2302         0.320888   
     24. A(C   0,C   1,H   9)          112.7887         0.318587   
     25. A(C   0,C   1,H   8)          113.8608         0.318324   
     26. A(C   0,C   1,C   2)           97.0410         0.356801   
     27. A(H   8,C   1,H   9)          108.9148         0.287572   
     28. A(C   2,C   1,H   8)          112.6679         0.320623   
     29. A(O   5,C   2,H  10)          114.7040         0.331717   
     30. A(C   3,C   2,H  10)          123.4487         0.321370   
     31. A(C   1,C   2,H  10)          118.6928         0.320866   
     32. A(C   4,C   2,O   5)           48.1205         0.293861   
     33. A(C   1,C   2,C   3)          103.6525         0.360072   
     34. A(C   3,C   2,O   5)           88.5017         0.372758   
     35. A(C   1,C   2,O   5)          102.2573         0.372142   
     36. A(C   3,C   2,C   4)           51.1328         0.285128   
     37. A(C   4,C   2,H  10)          156.9675         0.256761   
     38. A(C   1,C   2,C   4)           82.9574         0.284702   
     39. A(C   2,C   3,H  11)          112.2304         0.321607   
     40. A(C   2,C   3,C   4)           77.7375         0.360646   
     41. A(C   4,C   3,H  12)          119.4646         0.320850   
     42. A(C   2,C   3,H  12)          119.4629         0.320864   
     43. A(C   4,C   3,H  11)          112.2150         0.321594   
     44. A(H  11,C   3,H  12)          111.7581         0.287530   
     45. A(C   3,C   4,O   5)           88.4904         0.372685   
     46. A(C   2,C   4,O   5)           48.1100         0.293820   
     47. A(C   0,C   4,O   5)          102.2737         0.372098   
     48. A(C   0,C   4,C   2)           82.9592         0.284710   
     49. A(C   3,C   4,H  13)          123.4356         0.321354   
     50. A(C   2,C   4,H  13)          156.9534         0.256759   
     51. A(C   0,C   4,H  13)          118.7123         0.320873   
     52. A(C   2,C   4,C   3)           51.1296         0.285116   
     53. A(C   0,C   4,C   3)          103.6327         0.360068   
     54. A(O   5,C   4,H  13)          114.7099         0.331666   
     55. A(C   2,O   5,C   4)           83.7695         0.385334   
     56. D(H   9,C   1,C   0,H   6)      0.0266         0.009686   
     57. D(H   9,C   1,C   0,H   7)    124.8066         0.009686   
     58. D(C   2,C   1,C   0,H   6)    116.6197         0.009686   
     59. D(C   2,C   1,C   0,C   4)      0.0339         0.009686   
     60. D(H   8,C   1,C   0,H   6)   -124.7446         0.009686   
     61. D(H   8,C   1,C   0,H   7)      0.0354         0.009686   
     62. D(C   2,C   1,C   0,H   7)   -118.6004         0.009686   
     63. D(H   9,C   1,C   0,C   4)   -116.5591         0.009686   
     64. D(H   8,C   1,C   0,C   4)    118.6697         0.009686   
     65. D(C   4,C   2,C   1,H   9)    117.7915         0.011133   
     66. D(H  10,C   2,C   1,H   9)    -53.8849         0.011133   
     67. D(C   3,C   2,C   1,H   8)    -72.4812         0.011133   
     68. D(C   3,C   2,C   1,C   0)     47.0762         0.011133   
     69. D(H  10,C   2,C   1,C   0)   -171.7035         0.011133   
     70. D(H  10,C   2,C   1,H   8)     68.7392         0.011133   
     71. D(O   5,C   2,C   1,H   8)   -163.9272         0.011133   
     72. D(O   5,C   2,C   1,H   9)     73.4488         0.011133   
     73. D(O   5,C   2,C   1,C   0)    -44.3698         0.011133   
     74. D(C   4,C   2,C   1,H   8)   -119.5844         0.011133   
     75. D(C   4,C   2,C   1,C   0)     -0.0271         0.011133   
     76. D(C   3,C   2,C   1,H   9)    164.8948         0.011133   
     77. D(H  11,C   3,C   2,H  10)     42.9326         0.011336   
     78. D(C   4,C   3,C   2,O   5)     33.2170         0.011336   
     79. D(C   4,C   3,C   2,H  10)    152.1496         0.011336   
     80. D(H  11,C   3,C   2,C   1)   -178.2511         0.011336   
     81. D(C   4,C   3,C   2,C   1)    -69.0341         0.011336   
     82. D(H  11,C   3,C   2,C   4)   -109.2169         0.011336   
     83. D(H  11,C   3,C   2,O   5)    -76.0000         0.011336   
     84. D(H  12,C   3,C   2,C   4)    117.0877         0.011336   
     85. D(H  12,C   3,C   2,O   5)    150.3046         0.011336   
     86. D(H  12,C   3,C   2,C   1)     48.0535         0.011336   
     87. D(H  12,C   3,C   2,H  10)    -90.7628         0.011336   
     88. D(C   2,C   4,C   3,H  11)    109.2350         0.011331   
     89. D(C   0,C   4,C   3,H  12)    -48.0321         0.011331   
     90. D(C   0,C   4,C   3,H  11)    178.2887         0.011331   
     91. D(H  13,C   4,C   2,H  10)     -0.0295         0.002010   
     92. D(H  13,C   4,C   2,O   5)    -47.6324         0.002010   
     93. D(H  13,C   4,C   2,C   3)     85.0173         0.002010   
     94. D(O   5,C   4,C   2,H  10)     47.6029         0.002010   
     95. D(O   5,C   4,C   2,C   3)    132.6497         0.002010   
     96. D(O   5,C   4,C   2,C   1)   -113.4579         0.002010   
     97. D(C   3,C   4,C   2,H  10)    -85.0468         0.002010   
     98. D(C   3,C   4,C   2,O   5)   -132.6497         0.002010   
     99. D(C   3,C   4,C   2,C   1)    113.8924         0.002010   
    100. D(C   0,C   4,C   2,H  10)    161.0881         0.002010   
    101. D(C   0,C   4,C   2,O   5)    113.4852         0.002010   
    102. D(C   0,C   4,C   2,C   3)   -113.8651         0.002010   
    103. D(C   0,C   4,C   2,C   1)      0.0273         0.002010   
    104. D(H  13,C   4,C   0,H   7)    -68.7778         0.011137   
    105. D(H  13,C   4,C   0,H   6)     53.8484         0.011137   
    106. D(H  13,C   4,C   0,C   1)    171.6672         0.011137   
    107. D(O   5,C   4,C   0,H   7)    163.8533         0.011137   
    108. D(O   5,C   4,C   0,H   6)    -73.5205         0.011137   
    109. D(H  13,C   4,C   2,C   1)   -161.0903         0.002010   
    110. D(O   5,C   4,C   0,C   1)     44.2983         0.011137   
    111. D(C   3,C   4,C   0,H   7)     72.4196         0.011137   
    112. D(C   3,C   4,C   0,H   6)   -164.9542         0.011137   
    113. D(C   0,C   4,C   3,C   2)     69.0537         0.011331   
    114. D(C   3,C   4,C   0,C   1)    -47.1354         0.011137   
    115. D(C   2,C   4,C   0,H   7)    119.5279         0.011137   
    116. D(H  13,C   4,C   3,H  11)    -42.9031         0.011331   
    117. D(C   2,C   4,C   3,H  12)   -117.0858         0.011331   
    118. D(C   2,C   4,C   0,H   6)   -117.8459         0.011137   
    119. D(H  13,C   4,C   3,C   2)   -152.1381         0.011331   
    120. D(O   5,C   4,C   3,H  12)   -150.2968         0.011331   
    121. D(C   2,C   4,C   0,C   1)     -0.0271         0.011137   
    122. D(O   5,C   4,C   3,H  11)     76.0240         0.011331   
    123. D(H  13,C   4,C   3,H  12)     90.7761         0.011331   
    124. D(O   5,C   4,C   3,C   2)    -33.2110         0.011331   
    125. D(C   2,O   5,C   4,H  13)    161.4343         0.017998   
    126. D(C   2,O   5,C   4,C   3)     34.9487         0.017998   
    127. D(C   2,O   5,C   4,C   0)    -68.6760         0.017998   
    128. D(C   4,O   5,C   2,H  10)   -161.4553         0.018030   
    129. D(C   4,O   5,C   2,C   3)    -34.9503         0.018030   
    130. D(C   4,O   5,C   2,C   1)     68.6967         0.018030   
    -----------------------------------------------------------------

Number of atoms                         .... 14
Number of degrees of freedom            .... 130

         *************************************************************
         *                GEOMETRY OPTIMIZATION CYCLE   1            *
         *************************************************************
---------------------------------
CARTESIAN COORDINATES (ANGSTROEM)
---------------------------------
  C      1.151298    0.499663    0.146233
  C      0.399945   -0.456194    1.108494
  C     -0.983449   -0.342816    0.444821
  C     -0.683532   -0.520170   -1.051059
  C     -0.049459    0.846276   -0.750976
  O     -1.097507    1.077759    0.214770
  H      1.540798    1.393998    0.652704
  H      1.970697    0.018667   -0.408998
  H      0.788326   -1.485885    1.106233
  H      0.376433   -0.086537    2.143328
  H     -1.848778   -0.797759    0.947375
  H     -1.586763   -0.431958   -1.669147
  H     -0.043189   -1.354256   -1.380254
  H      0.065181    1.639211   -1.503622

----------------------------
CARTESIAN COORDINATES (A.U.)
----------------------------
  NO LB      ZA    FRAG     MASS         X           Y           Z
   0 C     6.0000    0    12.011    2.175638    0.944227    0.276341
   1 C     6.0000    0    12.011    0.755786   -0.862081    2.094749
   2 C     6.0000    0    12.011   -1.858450   -0.647828    0.840589
   3 C     6.0000    0    12.011   -1.291688   -0.982979   -1.986214
   4 C     6.0000    0    12.011   -0.093464    1.599230   -1.419139
   5 O     8.0000    0    15.999   -2.073988    2.036669    0.405856
   6 H     1.0000    0     1.008    2.911686    2.634274    1.233432
   7 H     1.0000    0     1.008    3.724078    0.035276   -0.772895
   8 H     1.0000    0     1.008    1.489720   -2.807916    2.090477
   9 H     1.0000    0     1.008    0.711355   -0.163530    4.050302
  10 H     1.0000    0     1.008   -3.493685   -1.507545    1.790280
  11 H     1.0000    0     1.008   -2.998547   -0.816282   -3.154231
  12 H     1.0000    0     1.008   -0.081615   -2.559172   -2.608303
  13 H     1.0000    0     1.008    0.123174    3.097659   -2.841434

--------------------------------
INTERNAL COORDINATES (ANGSTROEM)
--------------------------------
 C      0   0   0     0.000000000000     0.00000000     0.00000000
 C      1   0   0     1.550528779187     0.00000000     0.00000000
 C      2   1   0     1.538536811530    97.04097790     0.00000000
 C      3   2   1     1.535924060500   103.65250125    47.07617026
 C      4   3   2     1.535992963100    77.73752084   290.96587573
 O      3   2   1     1.443594465145   102.25728187   315.63017765
 H      1   2   3     1.099116209123   112.79060689   116.61966024
 H      1   2   3     1.100479125693   113.85845373   241.39959515
 H      2   1   3     1.100504163350   113.86080910   118.63576122
 H      2   1   3     1.099127337704   112.78873299   243.40695560
 H      3   2   1     1.099239956456   118.69284287   188.29650007
 H      4   3   2     1.098016461325   112.23040419   181.74892760
 H      4   3   2     1.101865360128   119.46292104    48.05353229
 H      5   4   3     1.099256215708   123.43564849   207.86191924

---------------------------
INTERNAL COORDINATES (A.U.)
---------------------------
 C      0   0   0     0.000000000000     0.00000000     0.00000000
 C      1   0   0     2.930074755427     0.00000000     0.00000000
 C      2   1   0     2.907413220748    97.04097790     0.00000000
 C      3   2   1     2.902475836845   103.65250125    47.07617026
 C      4   3   2     2.902606043889    77.73752084   290.96587573
 O      3   2   1     2.727998187569   102.25728187   315.63017765
 H      1   2   3     2.077028624597   112.79060689   116.61966024
 H      1   2   3     2.079604163658   113.85845373   241.39959515
 H      2   1   3     2.079651477972   113.86080910   118.63576122
 H      2   1   3     2.077049654567   112.78873299   243.40695560
 H      3   2   1     2.077262473165   118.69284287   188.29650007
 H      4   3   2     2.074950402442   112.23040419   181.74892760
 H      4   3   2     2.082223767097   119.46292104    48.05353229
 H      5   4   3     2.077293198698   123.43564849   207.86191924

---------------------
BASIS SET INFORMATION
---------------------
There are 3 groups of distinct atoms

 Group   1 Type C   : 7s4p1d contracted to 3s2p1d pattern {511/31/1}
 Group   2 Type O   : 7s4p1d contracted to 3s2p1d pattern {511/31/1}
 Group   3 Type H   : 4s1p contracted to 2s1p pattern {31/1}

Atom   0C    basis set group =>   1
Atom   1C    basis set group =>   1
Atom   2C    basis set group =>   1
Atom   3C    basis set group =>   1
Atom   4C    basis set group =>   1
Atom   5O    basis set group =>   2
Atom   6H    basis set group =>   3
Atom   7H    basis set group =>   3
Atom   8H    basis set group =>   3
Atom   9H    basis set group =>   3
Atom  10H    basis set group =>   3
Atom  11H    basis set group =>   3
Atom  12H    basis set group =>   3
Atom  13H    basis set group =>   3
---------------------------------
AUXILIARY/J BASIS SET INFORMATION
---------------------------------
There are 3 groups of distinct atoms

 Group   1 Type C   : 12s5p4d2f1g contracted to 6s4p3d1f1g pattern {711111/2111/211/2/1}
 Group   2 Type O   : 12s5p4d2f1g contracted to 6s4p3d1f1g pattern {711111/2111/211/2/1}
 Group   3 Type H   : 5s2p1d contracted to 3s1p1d pattern {311/2/1}

Atom   0C    basis set group =>   1
Atom   1C    basis set group =>   1
Atom   2C    basis set group =>   1
Atom   3C    basis set group =>   1
Atom   4C    basis set group =>   1
Atom   5O    basis set group =>   2
Atom   6H    basis set group =>   3
Atom   7H    basis set group =>   3
Atom   8H    basis set group =>   3
Atom   9H    basis set group =>   3
Atom  10H    basis set group =>   3
Atom  11H    basis set group =>   3
Atom  12H    basis set group =>   3
Atom  13H    basis set group =>   3


           ************************************************************
           *        Program running with 8 parallel MPI-processes     *
           *              working on a common directory               *
           ************************************************************
------------------------------------------------------------------------------
                           ORCA GTO INTEGRAL CALCULATION
                           -- RI-GTO INTEGRALS CHOSEN --
------------------------------------------------------------------------------
------------------------------------------------------------------------------
                   ___                                                        
                  /   \      - P O W E R E D   B Y -                         
                 /     \                                                     
                 |  |  |   _    _      __       _____    __    __             
                 |  |  |  | |  | |    /  \     |  _  \  |  |  /  |          
                  \  \/   | |  | |   /    \    | | | |  |  | /  /          
                 / \  \   | |__| |  /  /\  \   | |_| |  |  |/  /          
                |  |  |   |  __  | /  /__\  \  |    /   |      \           
                |  |  |   | |  | | |   __   |  |    \   |  |\   \          
                \     /   | |  | | |  |  |  |  | |\  \  |  | \   \       
                 \___/    |_|  |_| |__|  |__|  |_| \__\ |__|  \__/        
                                                                              
                      - O R C A' S   B I G   F R I E N D -                    
                                      &                                       
                       - I N T E G R A L  F E E D E R -                       
                                                                              
 v1 FN, 2020, v2 2021                                                         
------------------------------------------------------------------------------


Reading SHARK input file p0_C5H8O_opt_orca.SHARKINP.tmp ... ok
----------------------
SHARK INTEGRAL PACKAGE
----------------------

Number of atoms                             ...     14
Number of basis functions                   ...    124
Number of shells                            ...     60
Maximum angular momentum                    ...      2
Integral batch strategy                     ... SHARK/LIBINT Hybrid
RI-J (if used) integral strategy            ... SPLIT-RIJ (Revised 2003 algorithm where possible)
Printlevel                                  ...      1
Contraction scheme used                     ... SEGMENTED contraction
Coulomb Range Separation                    ... NOT USED
Exchange Range Separation                   ... NOT USED
Finite Nucleus Model                        ... NOT USED
Auxiliary Coulomb fitting basis             ... AVAILABLE
   # of basis functions in Aux-J            ...    382
   # of shells in Aux-J                     ...    130
   Maximum angular momentum in Aux-J        ...      4
Auxiliary J/K fitting basis                 ... NOT available
Auxiliary Correlation fitting basis         ... NOT available
Auxiliary 'external' fitting basis          ... NOT available
Integral threshold                          ...     2.500000e-11
Primitive cut-off                           ...     2.500000e-12
Primitive pair pre-selection threshold      ...     2.500000e-12

Calculating pre-screening integrals         ... done (  0.0 sec) Dimension = 60
Organizing shell pair data                  ... done (  0.0 sec)
Shell pair information
Total number of shell pairs                 ...      1830
Shell pairs after pre-screening             ...      1821
Total number of primitive shell pairs       ...      6430
Primitive shell pairs kept                  ...      5131
          la=0 lb=0:    588 shell pairs
          la=1 lb=0:    678 shell pairs
          la=1 lb=1:    210 shell pairs
          la=2 lb=0:    204 shell pairs
          la=2 lb=1:    120 shell pairs
          la=2 lb=2:     21 shell pairs

Calculating one electron integrals          ... done (  0.0 sec)
Calculating RI/J V-Matrix + Cholesky decomp.... done (  0.0 sec)
Calculating Nuclear repulsion               ... done (  0.0 sec) ENN=    253.306412161168 Eh

SHARK setup successfully completed in   0.1 seconds

Maximum memory used throughout the entire GTOINT-calculation: 10.6 MB


           ************************************************************
           *        Program running with 8 parallel MPI-processes     *
           *              working on a common directory               *
           ************************************************************
-------------------------------------------------------------------------------
                                 ORCA SCF
-------------------------------------------------------------------------------

------------
SCF SETTINGS
------------
Hamiltonian:
 Density Functional     Method          .... DFT(GTOs)
 Exchange Functional    Exchange        .... PBE
   PBE kappa parameter   XKappa         ....  0.804000
   PBE mue parameter    XMuePBE         ....  0.219520
 Correlation Functional Correlation     .... PBE
   PBE beta parameter  CBetaPBE         ....  0.066725
 LDA part of GGA corr.  LDAOpt          .... PW91-LDA
 Gradients option       PostSCFGGA      .... off
 Hybrid DFT is turned on
   Fraction HF Exchange ScalHFX         ....  0.250000
   Scaling of DF-GGA-X  ScalDFX         ....  0.750000
   Scaling of DF-GGA-C  ScalDFC         ....  1.000000
   Scaling of DF-LDA-C  ScalLDAC        ....  1.000000
   Perturbative correction              ....  0.000000
   Density functional embedding theory  .... OFF
   NL short-range parameter             ....  6.900000
 RI-approximation to the Coulomb term is turned on
   Number of AuxJ basis functions       .... 382
   RIJ-COSX (HFX calculated with COS-X)).... on


General Settings:
 Integral files         IntName         .... p0_C5H8O_opt_orca
 Hartree-Fock type      HFTyp           .... RHF
 Total Charge           Charge          ....    0
 Multiplicity           Mult            ....    1
 Number of Electrons    NEL             ....   46
 Basis Dimension        Dim             ....  124
 Nuclear Repulsion      ENuc            ....    253.3064121612 Eh

Convergence Acceleration:
 DIIS                   CNVDIIS         .... on
   Start iteration      DIISMaxIt       ....    12
   Startup error        DIISStart       ....  0.200000
   # of expansion vecs  DIISMaxEq       ....     5
   Bias factor          DIISBfac        ....   1.050
   Max. coefficient     DIISMaxC        ....  10.000
 Trust-Rad. Augm. Hess. CNVTRAH         .... auto
   Auto Start mean grad. ratio tolernc. ....  1.125000
   Auto Start start iteration           ....    20
   Auto Start num. interpolation iter.  ....    10
   Max. Number of Micro iterations      ....    16
   Max. Number of Macro iterations      .... Maxiter - #DIIS iter
   Number of Davidson start vectors     ....     2
   Converg. threshold I  (grad. norm)   ....   1.000e-05
   Converg. threshold II (energy diff.) ....   1.000e-08
   Grad. Scal. Fac. for Micro threshold ....   0.100
   Minimum threshold for Micro iter.    ....   0.010
   NR start threshold (gradient norm)   ....   0.001
   Initial trust radius                 ....   0.400
   Minimum AH scaling param. (alpha)    ....   1.000
   Maximum AH scaling param. (alpha)    .... 1000.000
   Orbital update algorithm             .... Taylor
   White noise on init. David. guess    .... on
   Maximum white noise                  ....   0.010
   Quad. conv. algorithm                .... NR
 SOSCF                  CNVSOSCF        .... on
   Start iteration      SOSCFMaxIt      ....   150
   Startup grad/error   SOSCFStart      ....  0.003300
 Level Shifting         CNVShift        .... on
   Level shift para.    LevelShift      ....    0.2500
   Turn off err/grad.   ShiftErr        ....    0.0010
 Zerner damping         CNVZerner       .... off
 Static damping         CNVDamp         .... on
   Fraction old density DampFac         ....    0.7000
   Max. Damping (<1)    DampMax         ....    0.9800
   Min. Damping (>=0)   DampMin         ....    0.0000
   Turn off err/grad.   DampErr         ....    0.1000
 Fernandez-Rico         CNVRico         .... off

SCF Procedure:
 Maximum # iterations   MaxIter         ....   250
 SCF integral mode      SCFMode         .... Direct
   Integral package                     .... SHARK and LIBINT hybrid scheme
 Reset frequency        DirectResetFreq ....    20
 Integral Threshold     Thresh          ....  2.500e-11 Eh
 Primitive CutOff       TCut            ....  2.500e-12 Eh

Convergence Tolerance:
 Convergence Check Mode ConvCheckMode   .... Total+1el-Energy
 Convergence forced     ConvForced      .... 0
 Energy Change          TolE            ....  1.000e-08 Eh
 1-El. energy change                    ....  1.000e-05 Eh
 Orbital Gradient       TolG            ....  1.000e-05
 Orbital Rotation angle TolX            ....  1.000e-05
 DIIS Error             TolErr          ....  5.000e-07


Diagonalization of the overlap matrix:
Smallest eigenvalue                        ... 5.088e-04
Time for diagonalization                   ...    0.002 sec
Threshold for overlap eigenvalues          ... 1.000e-08
Number of eigenvalues below threshold      ... 0
Time for construction of square roots      ...    0.001 sec
Total time needed                          ...    0.003 sec

Time for model grid setup =    0.038 sec

------------------------------
INITIAL GUESS: MODEL POTENTIAL
------------------------------
Loading Hartree-Fock densities                     ... done
Calculating cut-offs                               ... done
Initializing the effective Hamiltonian             ... done
Setting up the integral package (SHARK)            ... done
Starting the Coulomb interaction                   ... done (   0.0 sec)
Reading the grid                                   ... done
Mapping shells                                     ... done
Starting the XC term evaluation                    ... done (   0.0 sec)
  promolecular density results
     # of electrons  =     45.995347910
     EX              =    -36.107016683
     EC              =     -1.537620556
     EX+EC           =    -37.644637239
Transforming the Hamiltonian                       ... done (   0.0 sec)
Diagonalizing the Hamiltonian                      ... done (   0.0 sec)
Back transforming the eigenvectors                 ... done (   0.0 sec)
Now organizing SCF variables                       ... done
                      ------------------
                      INITIAL GUESS DONE (   0.1 sec)
                      ------------------
-------------------
DFT GRID GENERATION
-------------------

General Integration Accuracy     IntAcc      ... 4.388
Radial Grid Type                 RadialGrid  ... OptM3 with GC (2021)
Angular Grid (max. ang.)         AngularGrid ... 4 (Lebedev-302)
Angular grid pruning method      GridPruning ... 4 (adaptive)
Weight generation scheme         WeightScheme... Becke
Basis function cutoff            BFCut       ... 1.0000e-11
Integration weight cutoff        WCut        ... 1.0000e-14
Angular grids for H and He will be reduced by one unit
Partially contracted basis set               ... off
Rotationally invariant grid construction     ... off

Total number of grid points                  ...    61725
Total number of batches                      ...      971
Average number of points per batch           ...       63
Average number of grid points per atom       ...     4409
Time for grid setup =    0.225 sec

--------------------
COSX GRID GENERATION
--------------------

GRIDX 1
-------
General Integration Accuracy     IntAcc      ... 3.816
Radial Grid Type                 RadialGrid  ... OptM3 with GC (2021)
Angular Grid (max. ang.)         AngularGrid ... 1 (Lebedev-50)
Angular grid pruning method      GridPruning ... 4 (adaptive)
Weight generation scheme         WeightScheme... Becke
Basis function cutoff            BFCut       ... 1.0000e-11
Integration weight cutoff        WCut        ... 1.0000e-14
Angular grids for H and He will be reduced by one unit
Partially contracted basis set               ... on
Rotationally invariant grid construction     ... off

Total number of grid points                  ...     7912
Total number of batches                      ...      130
Average number of points per batch           ...       60
Average number of grid points per atom       ...      565
UseSFitting                                  ... on

GRIDX 2
-------
General Integration Accuracy     IntAcc      ... 4.020
Radial Grid Type                 RadialGrid  ... OptM3 with GC (2021)
Angular Grid (max. ang.)         AngularGrid ... 2 (Lebedev-110)
Angular grid pruning method      GridPruning ... 4 (adaptive)
Weight generation scheme         WeightScheme... Becke
Basis function cutoff            BFCut       ... 1.0000e-11
Integration weight cutoff        WCut        ... 1.0000e-14
Angular grids for H and He will be reduced by one unit
Partially contracted basis set               ... on
Rotationally invariant grid construction     ... off

Total number of grid points                  ...    16862
Total number of batches                      ...      269
Average number of points per batch           ...       62
Average number of grid points per atom       ...     1204
UseSFitting                                  ... on

GRIDX 3
-------
General Integration Accuracy     IntAcc      ... 4.338
Radial Grid Type                 RadialGrid  ... OptM3 with GC (2021)
Angular Grid (max. ang.)         AngularGrid ... 3 (Lebedev-194)
Angular grid pruning method      GridPruning ... 4 (adaptive)
Weight generation scheme         WeightScheme... Becke
Basis function cutoff            BFCut       ... 1.0000e-11
Integration weight cutoff        WCut        ... 1.0000e-14
Angular grids for H and He will be reduced by one unit
Partially contracted basis set               ... on
Rotationally invariant grid construction     ... off

Total number of grid points                  ...    36915
Total number of batches                      ...      584
Average number of points per batch           ...       63
Average number of grid points per atom       ...     2637
UseSFitting                                  ... on

Time for X-Grid setup             =    0.166 sec

--------------
SCF ITERATIONS
--------------
ITER       Energy         Delta-E        Max-DP      RMS-DP      [F,P]     Damp
               ***  Starting incremental Fock matrix formation  ***
  0   -269.8835536461   0.000000000000 0.06284977  0.00252975  0.1515941 0.7000
  1   -269.9402843142  -0.056730668091 0.04008333  0.00174753  0.0666217 0.7000
                               ***Turning on DIIS***
  2   -269.9641571460  -0.023872831841 0.06140898  0.00300877  0.0277074 0.0000
  3   -269.9998611063  -0.035703960287 0.02773955  0.00128815  0.0348113 0.0000
  4   -270.0085292971  -0.008668190758 0.00440785  0.00027193  0.0052084 0.0000
  5   -270.0087682780  -0.000238980958 0.00276568  0.00011531  0.0038153 0.0000
                      *** Initiating the SOSCF procedure ***
                           *** Shutting down DIIS ***
                      *** Re-Reading the Fockian *** 
                      *** Removing any level shift *** 
ITER      Energy       Delta-E        Grad      Rot      Max-DP    RMS-DP
  6   -270.00879370  -0.0000254262  0.000214  0.000214  0.000778  0.000037
               *** Restarting incremental Fock matrix formation ***
  7   -270.00878478   0.0000089204  0.000080  0.000132  0.000308  0.000021
  8   -270.00878483  -0.0000000432  0.000130  0.000100  0.000205  0.000009
  9   -270.00878505  -0.0000002210  0.000017  0.000041  0.000076  0.000004
 10   -270.00878505  -0.0000000060  0.000010  0.000011  0.000036  0.000001
                  ***Gradient check signals convergence***
              ***Rediagonalizing the Fockian in SOSCF/NRSCF***

               *****************************************************
               *                     SUCCESS                       *
               *           SCF CONVERGED AFTER  11 CYCLES          *
               *****************************************************

Old exchange energy                            =     -9.239435494 Eh
New exchange energy                            =     -9.239435219 Eh
Exchange energy change after final integration =      0.000000275 Eh
Total energy after final integration           =   -270.008784784 Eh
Final COS-X integration done in                =     0.567 sec

----------------
TOTAL SCF ENERGY
----------------

Total Energy       :         -270.00878478 Eh           -7347.31256 eV

Components:
Nuclear Repulsion  :          253.30641216 Eh            6892.81790 eV
Electronic Energy  :         -523.31519694 Eh          -14240.13046 eV
One Electron Energy:         -867.20868541 Eh          -23597.94803 eV
Two Electron Energy:          343.89348846 Eh            9357.81756 eV
Max COSX asymmetry :            0.00000515 Eh               0.00014 eV

Virial components:
Potential Energy   :         -537.40644502 Eh          -14623.57282 eV
Kinetic Energy     :          267.39766023 Eh            7276.26025 eV
Virial Ratio       :            2.00976495


DFT components:
N(Alpha)           :       23.000006821324 electrons
N(Beta)            :       23.000006821324 electrons
N(Total)           :       46.000013642649 electrons
E(X)               :      -27.607026786464 Eh       
E(C)               :       -1.546241364826 Eh       
E(XC)              :      -29.153268151290 Eh       
DFET-embed. en.    :        0.000000000000 Eh       

---------------
SCF CONVERGENCE
---------------

  Last Energy change         ...   -4.5601e-09  Tolerance :   1.0000e-08
  Last MAX-Density change    ...    1.7486e-15  Tolerance :   1.0000e-07
  Last RMS-Density change    ...    4.2888e-17  Tolerance :   5.0000e-09
  Last Orbital Gradient      ...    1.7738e-06  Tolerance :   1.0000e-05
  Last Orbital Rotation      ...    5.8650e-06  Tolerance :   1.0000e-05

             **** THE GBW FILE WAS UPDATED (p0_C5H8O_opt_orca.gbw) ****
             **** DENSITY p0_C5H8O_opt_orca.scfp WAS UPDATED ****
             **** ENERGY FILE WAS UPDATED (p0_C5H8O_opt_orca.en.tmp) ****
             **** THE GBW FILE WAS UPDATED (p0_C5H8O_opt_orca.gbw) ****
             **** DENSITY p0_C5H8O_opt_orca.scfp WAS UPDATED ****
----------------
ORBITAL ENERGIES
----------------

  NO   OCC          E(Eh)            E(eV) 
   0   2.0000     -19.200677      -522.4770 
   1   2.0000     -10.284988      -279.8687 
   2   2.0000     -10.284951      -279.8677 
   3   2.0000     -10.236339      -278.5449 
   4   2.0000     -10.232420      -278.4383 
   5   2.0000     -10.232312      -278.4354 
   6   2.0000      -1.083227       -29.4761 
   7   2.0000      -0.814596       -22.1663 
   8   2.0000      -0.730385       -19.8748 
   9   2.0000      -0.721947       -19.6452 
  10   2.0000      -0.583692       -15.8831 
  11   2.0000      -0.557438       -15.1687 
  12   2.0000      -0.539826       -14.6894 
  13   2.0000      -0.482968       -13.1422 
  14   2.0000      -0.472369       -12.8538 
  15   2.0000      -0.447593       -12.1796 
  16   2.0000      -0.384922       -10.4743 
  17   2.0000      -0.367053        -9.9880 
  18   2.0000      -0.363444        -9.8898 
  19   2.0000      -0.361452        -9.8356 
  20   2.0000      -0.334109        -9.0916 
  21   2.0000      -0.324783        -8.8378 
  22   2.0000      -0.261865        -7.1257 
  23   0.0000       0.070870         1.9285 
  24   0.0000       0.095424         2.5966 
  25   0.0000       0.105891         2.8814 
  26   0.0000       0.112648         3.0653 
  27   0.0000       0.122053         3.3212 
  28   0.0000       0.141325         3.8456 
  29   0.0000       0.146411         3.9840 
  30   0.0000       0.157822         4.2946 
  31   0.0000       0.167443         4.5563 
  32   0.0000       0.188140         5.1196 
  33   0.0000       0.199817         5.4373 
  34   0.0000       0.213437         5.8079 
  35   0.0000       0.233228         6.3465 
  36   0.0000       0.268813         7.3148 
  37   0.0000       0.315367         8.5816 
  38   0.0000       0.429609        11.6902 
  39   0.0000       0.462853        12.5949 
  40   0.0000       0.472017        12.8442 
  41   0.0000       0.486472        13.2376 
  42   0.0000       0.500019        13.6062 
  43   0.0000       0.514828        14.0092 
  44   0.0000       0.580034        15.7835 
  45   0.0000       0.582041        15.8381 
  46   0.0000       0.592141        16.1130 
  47   0.0000       0.608979        16.5711 
  48   0.0000       0.625228        17.0133 
  49   0.0000       0.644009        17.5244 
  50   0.0000       0.648359        17.6427 
  51   0.0000       0.660940        17.9851 
  52   0.0000       0.671898        18.2833 
  53   0.0000       0.683264        18.5925 
  54   0.0000       0.691135        18.8067 
  55   0.0000       0.705363        19.1939 
  56   0.0000       0.717313        19.5191 
  57   0.0000       0.727646        19.8003 
  58   0.0000       0.752403        20.4739 
  59   0.0000       0.780830        21.2475 
  60   0.0000       0.794974        21.6323 
  61   0.0000       0.848851        23.0984 
  62   0.0000       0.935655        25.4605 
  63   0.0000       1.008187        27.4342 
  64   0.0000       1.065912        29.0049 
  65   0.0000       1.072880        29.1945 
  66   0.0000       1.145587        31.1730 
  67   0.0000       1.170432        31.8491 
  68   0.0000       1.273481        34.6532 
  69   0.0000       1.331116        36.2215 
  70   0.0000       1.354123        36.8476 
  71   0.0000       1.401297        38.1312 
  72   0.0000       1.465032        39.8655 
  73   0.0000       1.495830        40.7036 
  74   0.0000       1.566873        42.6368 
  75   0.0000       1.578045        42.9408 
  76   0.0000       1.605984        43.7010 
  77   0.0000       1.620393        44.0931 
  78   0.0000       1.646161        44.7943 
  79   0.0000       1.686691        45.8972 
  80   0.0000       1.728696        47.0402 
  81   0.0000       1.732848        47.1532 
  82   0.0000       1.744733        47.4766 
  83   0.0000       1.778310        48.3903 
  84   0.0000       1.796274        48.8791 
  85   0.0000       1.805558        49.1317 
  86   0.0000       1.832336        49.8604 
  87   0.0000       1.861582        50.6562 
  88   0.0000       1.891135        51.4604 
  89   0.0000       1.901416        51.7402 
  90   0.0000       1.952571        53.1321 
  91   0.0000       1.956990        53.2524 
  92   0.0000       2.001252        54.4568 
  93   0.0000       2.001344        54.4593 
  94   0.0000       2.030071        55.2410 
  95   0.0000       2.066194        56.2240 
  96   0.0000       2.077099        56.5207 
  97   0.0000       2.155426        58.6521 
  98   0.0000       2.234643        60.8077 
  99   0.0000       2.248527        61.1855 
 100   0.0000       2.257415        61.4274 
 101   0.0000       2.271306        61.8054 
 102   0.0000       2.302287        62.6484 
 103   0.0000       2.384166        64.8765 
 104   0.0000       2.401989        65.3615 
 105   0.0000       2.431175        66.1556 
 106   0.0000       2.594926        70.6115 
 107   0.0000       2.601455        70.7892 
 108   0.0000       2.611375        71.0591 
 109   0.0000       2.688502        73.1579 
 110   0.0000       2.740164        74.5636 
 111   0.0000       2.838897        77.2503 
 112   0.0000       2.845585        77.4323 
 113   0.0000       2.865203        77.9661 
 114   0.0000       2.870820        78.1190 
 115   0.0000       2.926090        79.6230 
 116   0.0000       2.942437        80.0678 
 117   0.0000       3.012190        81.9659 
 118   0.0000       3.078562        83.7719 
 119   0.0000       3.093278        84.1724 
 120   0.0000       3.110887        84.6515 
 121   0.0000       3.115999        84.7906 
 122   0.0000       3.273687        89.0816 
 123   0.0000       3.513187        95.5987 

                    ********************************
                    * MULLIKEN POPULATION ANALYSIS *
                    ********************************

-----------------------
MULLIKEN ATOMIC CHARGES
-----------------------
   0 C :    0.038466
   1 C :    0.037936
   2 C :   -0.012224
   3 C :    0.003318
   4 C :   -0.012473
   5 O :   -0.390963
   6 H :    0.048440
   7 H :    0.037598
   8 H :    0.037713
   9 H :    0.048503
  10 H :    0.032159
  11 H :    0.057720
  12 H :    0.041486
  13 H :    0.032322
Sum of atomic charges:    0.0000000

--------------------------------
MULLIKEN REDUCED ORBITAL CHARGES
--------------------------------
  0 C s       :     2.951397  s :     2.951397
      pz      :     0.976249  p :     2.976667
      px      :     0.981912
      py      :     1.018506
      dz2     :     0.003377  d :     0.033470
      dxz     :     0.009678
      dyz     :     0.007268
      dx2y2   :     0.005367
      dxy     :     0.007780
  1 C s       :     2.952221  s :     2.952221
      pz      :     1.031206  p :     2.976382
      px      :     0.932998
      py      :     1.012178
      dz2     :     0.008891  d :     0.033462
      dxz     :     0.006194
      dyz     :     0.005594
      dx2y2   :     0.007538
      dxy     :     0.005244
  2 C s       :     3.283085  s :     3.283085
      pz      :     0.944945  p :     2.655301
      px      :     1.011226
      py      :     0.699131
      dz2     :     0.014009  d :     0.073837
      dxz     :     0.012515
      dyz     :     0.013987
      dx2y2   :     0.019084
      dxy     :     0.014243
  3 C s       :     3.089324  s :     3.089324
      pz      :     0.936619  p :     2.873011
      px      :     0.990999
      py      :     0.945393
      dz2     :     0.008869  d :     0.034347
      dxz     :     0.007218
      dyz     :     0.004835
      dx2y2   :     0.005863
      dxy     :     0.007561
  4 C s       :     3.283229  s :     3.283229
      pz      :     0.862912  p :     2.655436
      px      :     0.838698
      py      :     0.953826
      dz2     :     0.010802  d :     0.073807
      dxz     :     0.019747
      dyz     :     0.014945
      dx2y2   :     0.016077
      dxy     :     0.012236
  5 O s       :     3.831969  s :     3.831969
      pz      :     1.585617  p :     4.540710
      px      :     1.576818
      py      :     1.378275
      dz2     :     0.002741  d :     0.018285
      dxz     :     0.003660
      dyz     :     0.003103
      dx2y2   :     0.005780
      dxy     :     0.003002
  6 H s       :     0.929070  s :     0.929070
      pz      :     0.006243  p :     0.022490
      px      :     0.005252
      py      :     0.010994
  7 H s       :     0.939865  s :     0.939865
      pz      :     0.006612  p :     0.022537
      px      :     0.009796
      py      :     0.006130
  8 H s       :     0.939750  s :     0.939750
      pz      :     0.004110  p :     0.022537
      px      :     0.005391
      py      :     0.013036
  9 H s       :     0.929009  s :     0.929009
      pz      :     0.013104  p :     0.022488
      px      :     0.003958
      py      :     0.005425
 10 H s       :     0.946363  s :     0.946363
      pz      :     0.005961  p :     0.021478
      px      :     0.010864
      py      :     0.004654
 11 H s       :     0.919417  s :     0.919417
      pz      :     0.007147  p :     0.022862
      px      :     0.011624
      py      :     0.004091
 12 H s       :     0.936269  s :     0.936269
      pz      :     0.004603  p :     0.022245
      px      :     0.007647
      py      :     0.009995
 13 H s       :     0.946202  s :     0.946202
      pz      :     0.008896  p :     0.021477
      px      :     0.003164
      py      :     0.009417


                     *******************************
                     * LOEWDIN POPULATION ANALYSIS *
                     *******************************

----------------------
LOEWDIN ATOMIC CHARGES
----------------------
   0 C :   -0.049747
   1 C :   -0.049778
   2 C :    0.076494
   3 C :   -0.050259
   4 C :    0.076554
   5 O :   -0.201322
   6 H :    0.030626
   7 H :    0.026619
   8 H :    0.026612
   9 H :    0.030660
  10 H :    0.014990
  11 H :    0.033730
  12 H :    0.019783
  13 H :    0.015038

-------------------------------
LOEWDIN REDUCED ORBITAL CHARGES
-------------------------------
  0 C s       :     2.855182  s :     2.855182
      pz      :     1.035973  p :     3.109385
      px      :     1.022178
      py      :     1.051234
      dz2     :     0.006427  d :     0.085179
      dxz     :     0.027027
      dyz     :     0.018861
      dx2y2   :     0.012969
      dxy     :     0.019895
  1 C s       :     2.855260  s :     2.855260
      pz      :     1.040941  p :     3.109352
      px      :     1.020175
      py      :     1.048236
      dz2     :     0.022174  d :     0.085167
      dxz     :     0.016493
      dyz     :     0.013493
      dx2y2   :     0.019619
      dxy     :     0.013387
  2 C s       :     2.873718  s :     2.873718
      pz      :     1.020737  p :     2.888457
      px      :     1.045928
      py      :     0.821792
      dz2     :     0.032450  d :     0.161330
      dxz     :     0.030298
      dyz     :     0.027559
      dx2y2   :     0.042202
      dxy     :     0.028820
  3 C s       :     2.867516  s :     2.867516
      pz      :     1.016914  p :     3.093567
      px      :     1.052109
      py      :     1.024544
      dz2     :     0.024373  d :     0.089176
      dxz     :     0.018546
      dyz     :     0.011293
      dx2y2   :     0.014401
      dxy     :     0.020563
  4 C s       :     2.873770  s :     2.873770
      pz      :     0.952417  p :     2.888421
      px      :     0.925827
      py      :     1.010178
      dz2     :     0.020320  d :     0.161255
      dxz     :     0.044512
      dyz     :     0.034135
      dx2y2   :     0.036965
      dxy     :     0.025323
  5 O s       :     3.529018  s :     3.529018
      pz      :     1.601502  p :     4.641877
      px      :     1.604708
      py      :     1.435667
      dz2     :     0.004616  d :     0.030427
      dxz     :     0.006530
      dyz     :     0.004768
      dx2y2   :     0.010180
      dxy     :     0.004334
  6 H s       :     0.901352  s :     0.901352
      pz      :     0.019965  p :     0.068022
      px      :     0.016209
      py      :     0.031849
  7 H s       :     0.905576  s :     0.905576
      pz      :     0.019993  p :     0.067805
      px      :     0.029092
      py      :     0.018720
  8 H s       :     0.905581  s :     0.905581
      pz      :     0.013033  p :     0.067806
      px      :     0.017518
      py      :     0.037254
  9 H s       :     0.901320  s :     0.901320
      pz      :     0.038183  p :     0.068020
      px      :     0.013582
      py      :     0.016255
 10 H s       :     0.918022  s :     0.918022
      pz      :     0.019584  p :     0.066987
      px      :     0.032868
      py      :     0.014536
 11 H s       :     0.897339  s :     0.897339
      pz      :     0.022227  p :     0.068931
      px      :     0.033771
      py      :     0.012933
 12 H s       :     0.912853  s :     0.912853
      pz      :     0.015241  p :     0.067364
      px      :     0.022083
      py      :     0.030040
 13 H s       :     0.917970  s :     0.917970
      pz      :     0.026715  p :     0.066992
      px      :     0.011407
      py      :     0.028870


                      *****************************
                      * MAYER POPULATION ANALYSIS *
                      *****************************

  NA   - Mulliken gross atomic population
  ZA   - Total nuclear charge
  QA   - Mulliken gross atomic charge
  VA   - Mayer's total valence
  BVA  - Mayer's bonded valence
  FA   - Mayer's free valence

  ATOM       NA         ZA         QA         VA         BVA        FA
  0 C      5.9615     6.0000     0.0385     3.9707     3.9707     0.0000
  1 C      5.9621     6.0000     0.0379     3.9708     3.9708     0.0000
  2 C      6.0122     6.0000    -0.0122     3.9760     3.9760     0.0000
  3 C      5.9967     6.0000     0.0033     3.8632     3.8632    -0.0000
  4 C      6.0125     6.0000    -0.0125     3.9762     3.9762    -0.0000
  5 O      8.3910     8.0000    -0.3910     1.9601     1.9601     0.0000
  6 H      0.9516     1.0000     0.0484     0.9836     0.9836    -0.0000
  7 H      0.9624     1.0000     0.0376     0.9781     0.9781    -0.0000
  8 H      0.9623     1.0000     0.0377     0.9781     0.9781     0.0000
  9 H      0.9515     1.0000     0.0485     0.9836     0.9836     0.0000
 10 H      0.9678     1.0000     0.0322     0.9895     0.9895     0.0000
 11 H      0.9423     1.0000     0.0577     0.9870     0.9870     0.0000
 12 H      0.9585     1.0000     0.0415     0.9798     0.9798     0.0000
 13 H      0.9677     1.0000     0.0323     0.9896     0.9896    -0.0000

  Mayer bond orders larger than 0.100000
B(  0-C ,  1-C ) :   1.0807 B(  0-C ,  4-C ) :   1.0336 B(  0-C ,  6-H ) :   0.9314 
B(  0-C ,  7-H ) :   0.9320 B(  1-C ,  2-C ) :   1.0335 B(  1-C ,  8-H ) :   0.9322 
B(  1-C ,  9-H ) :   0.9315 B(  2-C ,  3-C ) :   1.0023 B(  2-C ,  5-O ) :   0.9378 
B(  2-C , 10-H ) :   0.9693 B(  3-C ,  4-C ) :   1.0021 B(  3-C , 11-H ) :   0.9372 
B(  3-C , 12-H ) :   0.9543 B(  4-C ,  5-O ) :   0.9381 B(  4-C , 13-H ) :   0.9693 



------------------
HIRSHFELD ANALYSIS
------------------

Total integrated alpha density =     23.000006821
Total integrated beta density  =     23.000006821

  ATOM     CHARGE      SPIN    
   0 C   -0.050002    0.000000
   1 C   -0.050031    0.000000
   2 C    0.067691    0.000000
   3 C   -0.056212    0.000000
   4 C    0.067720    0.000000
   5 O   -0.215981    0.000000
   6 H    0.027649    0.000000
   7 H    0.024501    0.000000
   8 H    0.024474    0.000000
   9 H    0.027680    0.000000
  10 H    0.037357    0.000000
  11 H    0.032042    0.000000
  12 H    0.025704    0.000000
  13 H    0.037396    0.000000

  TOTAL  -0.000014    0.000000

-------
TIMINGS
-------

Total SCF time: 0 days 0 hours 0 min 4 sec 

Total time                  ....       4.868 sec
Sum of individual times     ....       4.760 sec  ( 97.8%)

Fock matrix formation       ....       4.151 sec  ( 85.3%)
  Split-RI-J                ....       0.433 sec  ( 10.4% of F)
  Chain of spheres X        ....       2.870 sec  ( 69.1% of F)
  XC integration            ....       0.826 sec  ( 19.9% of F)
    Basis function eval.    ....       0.298 sec  ( 36.1% of XC)
    Density eval.           ....       0.156 sec  ( 18.8% of XC)
    XC-Functional eval.     ....       0.076 sec  (  9.1% of XC)
    XC-Potential eval.      ....       0.193 sec  ( 23.4% of XC)
Diagonalization             ....       0.023 sec  (  0.5%)
Density matrix formation    ....       0.002 sec  (  0.0%)
Population analysis         ....       0.086 sec  (  1.8%)
Initial guess               ....       0.035 sec  (  0.7%)
Orbital Transformation      ....       0.000 sec  (  0.0%)
Orbital Orthonormalization  ....       0.000 sec  (  0.0%)
DIIS solution               ....       0.020 sec  (  0.4%)
SOSCF solution              ....       0.015 sec  (  0.3%)
Grid generation             ....       0.429 sec  (  8.8%)

Maximum memory used throughout the entire SCF-calculation: 49.3 MB


-------------------------------------------------------------------------------
                          DFT DISPERSION CORRECTION                            
                                                                               
                              DFTD3 V3.1  Rev 1                                
                          USING Becke-Johnson damping                          
-------------------------------------------------------------------------------
The PBE0 functional is recognized
Active option DFTDOPT                   ...         4   

molecular C6(AA) [au] = 1481.773961 


            DFT-D V3
 parameters
 s6 scaling factor         :     1.0000 
 a1 scaling factor         :     0.4145 
 s8 scaling factor         :     1.2177 
 a2 scaling factor         :     4.8593 
 ad hoc parameters k1-k3   :    16.0000     1.3333    -4.0000 

 Edisp/kcal,au: -6.035904938466  -0.009618825761 
 E6   /kcal   :  -3.871259295 
 E8   /kcal   :  -2.164645643 
 % E8         :  35.862818671 

-------------------------   ----------------
Dispersion correction           -0.009618826
-------------------------   ----------------


-------------------------   --------------------
FINAL SINGLE POINT ENERGY      -270.018403609536
-------------------------   --------------------



           ************************************************************
           *        Program running with 8 parallel MPI-processes     *
           *              working on a common directory               *
           ************************************************************
------------------------------------------------------------------------------
                         ORCA SCF GRADIENT CALCULATION
------------------------------------------------------------------------------

 ... reading COSX grid (gridx3)
Gradient of the Kohn-Sham DFT energy:
Kohn-Sham wavefunction type      ... RKS
Hartree-Fock exchange scaling    ...    0.250
Number of operators              ...    1
Number of atoms                  ...   14
Basis set dimensions             ...  124
Integral neglect threshold       ... 2.5e-11
Integral primitive cutoff        ... 2.5e-12
SHARK Integral package           ... ON

Nuc. rep. gradient       (SHARK) ... done (  0.0 sec)
HCore & Overlap gradient (SHARK) ... done (  0.0 sec)
RI-J gradient            (SHARK) ... done (  0.1 sec)
COSX-gradient                    ... done (  0.6 sec)
Exchange-correlation gradient    ... done
Dispersion correction            ... done

------------------
CARTESIAN GRADIENT
------------------

   1   C   :    0.000758148    0.000143677    0.000538010
   2   C   :    0.000633315    0.000127183    0.000750046
   3   C   :   -0.000689527    0.000861173   -0.000166528
   4   C   :   -0.001000154    0.000669416   -0.000121488
   5   C   :   -0.000865849    0.000476241    0.000239342
   6   O   :    0.000742316   -0.000909566   -0.000335955
   7   H   :   -0.000163285    0.000123906    0.000395815
   8   H   :   -0.000218822   -0.000435109   -0.000442844
   9   H   :   -0.000153403   -0.000310214   -0.000590079
  10   H   :    0.000110260    0.000394931    0.000099897
  11   H   :    0.000018500   -0.000413901    0.000221043
  12   H   :   -0.000041538   -0.000533439   -0.000593853
  13   H   :    0.000481255   -0.000180090    0.000193636
  14   H   :    0.000380453    0.000037428   -0.000302461

Difference to translation invariance:
           :   -0.0000083306    0.0000516362   -0.0001154181

Difference to rotation invariance:
           :   -0.0002266857   -0.0001343253   -0.0002450553

Norm of the cartesian gradient     ...    0.0031264007
RMS gradient                       ...    0.0004824141
MAX gradient                       ...    0.0010001540

-------
TIMINGS
-------

Total SCF gradient time            ...        1.297 sec

One electron gradient       ....       0.015 sec  (  1.2%)
RI-J Coulomb gradient       ....       0.115 sec  (  8.9%)
COSX gradient               ....       0.641 sec  ( 49.4%)
XC gradient                 ....       0.339 sec  ( 26.1%)

Maximum memory used throughout the entire SCFGRAD-calculation: 38.0 MB
------------------------------------------------------------------------------
                         ORCA GEOMETRY RELAXATION STEP
------------------------------------------------------------------------------

Reading the OPT-File                    .... done
Getting information on internals        .... done
Copying old internal coords+grads       .... done
Making the new internal coordinates     .... (new redundants).... done
Validating the new internal coordinates .... (new redundants).... done
Calculating the B-matrix                .... done
Calculating the G,G- and P matrices     .... done
Transforming gradient to internals      .... done
Projecting the internal gradient        .... done
Number of atoms                         ....  14
Number of internal coordinates          .... 130
Current Energy                          ....  -270.018403610 Eh
Current gradient norm                   ....     0.003126401 Eh/bohr
Maximum allowed component of the step   ....  0.300
Current trust radius                    ....  0.300
Evaluating the initial hessian          ....  (Almloef) done
Projecting the Hessian                  .... done
Forming the augmented Hessian           .... done
Diagonalizing the augmented Hessian     .... done
Last element of RFO vector              ....  0.999849921
Lowest eigenvalues of augmented Hessian:
 -0.000025026  0.012633219  0.015032724  0.019495361  0.037386914
Length of the computed step             ....  0.017327043
The final length of the internal step   ....  0.017327043
Converting the step to cartesian space:
 Initial RMS(Int)=    0.0015196822
Transforming coordinates:
 Iter   0:  RMS(Cart)=    0.0026443773 RMS(Int)=    0.0015200082
 Iter   1:  RMS(Cart)=    0.0000051444 RMS(Int)=    0.0000029386
 Iter   2:  RMS(Cart)=    0.0000000156 RMS(Int)=    0.0000000114
done
Storing new coordinates                 .... done

                                .--------------------.
          ----------------------|Geometry convergence|-------------------------
          Item                value                   Tolerance       Converged
          ---------------------------------------------------------------------
          RMS gradient        0.0001733586            0.0001000000      NO
          MAX gradient        0.0006119633            0.0003000000      NO
          RMS step            0.0015196822            0.0020000000      YES
          MAX step            0.0038233984            0.0040000000      YES
          ........................................................
          Max(Bonds)      0.0009      Max(Angles)    0.15
          Max(Dihed)        0.22      Max(Improp)    0.00
          ---------------------------------------------------------------------

The optimization has not yet converged - more geometry cycles are needed


    ---------------------------------------------------------------------------
                         Redundant Internal Coordinates
                            (Angstroem and degrees)

        Definition                    Value    dE/dq     Step     New-Value
    ----------------------------------------------------------------------------
     1. B(C   1,C   0)                1.5505 -0.000305  0.0002    1.5507   
     2. B(C   2,C   1)                1.5385  0.000612 -0.0009    1.5376   
     3. B(C   3,C   2)                1.5359  0.000215 -0.0004    1.5355   
     4. B(C   4,C   0)                1.5385  0.000590 -0.0009    1.5376   
     5. B(C   4,C   2)                1.9277  0.000023 -0.0000    1.9277   
     6. B(C   4,C   3)                1.5360  0.000196 -0.0004    1.5356   
     7. B(O   5,C   2)                1.4436 -0.000382  0.0006    1.4442   
     8. B(O   5,C   4)                1.4438 -0.000365  0.0006    1.4444   
     9. B(H   6,C   0)                1.0991  0.000230 -0.0003    1.0988   
    10. B(H   7,C   0)                1.1005  0.000245 -0.0004    1.1001   
    11. B(H   8,C   1)                1.1005  0.000246 -0.0004    1.1001   
    12. B(H   9,C   1)                1.0991  0.000227 -0.0003    1.0988   
    13. B(H  10,C   2)                1.0992  0.000264 -0.0004    1.0988   
    14. B(H  11,C   3)                1.0980  0.000321 -0.0005    1.0975   
    15. B(H  12,C   3)                1.1019  0.000358 -0.0005    1.1013   
    16. B(H  13,C   4)                1.0993  0.000264 -0.0004    1.0989   
    17. A(C   4,C   0,H   7)          112.67 -0.000309    0.11    112.78   
    18. A(C   1,C   0,H   7)          113.86  0.000023    0.04    113.90   
    19. A(C   1,C   0,C   4)           97.04  0.000036    0.00     97.04   
    20. A(H   6,C   0,H   7)          108.92  0.000238   -0.13    108.79   
    21. A(C   1,C   0,H   6)          112.79 -0.000183    0.05    112.84   
    22. A(C   4,C   0,H   6)          111.22  0.000158   -0.05    111.17   
    23. A(C   2,C   1,H   9)          111.23  0.000174   -0.07    111.16   
    24. A(C   0,C   1,H   9)          112.79 -0.000165    0.04    112.83   
    25. A(C   0,C   1,H   8)          113.86  0.000019    0.04    113.90   
    26. A(C   0,C   1,C   2)           97.04  0.000027    0.00     97.04   
    27. A(H   8,C   1,H   9)          108.91  0.000227   -0.12    108.79   
    28. A(C   2,C   1,H   8)          112.67 -0.000316    0.13    112.79   
    29. A(O   5,C   2,H  10)          114.70  0.000236   -0.09    114.62   
    30. A(C   3,C   2,H  10)          123.45  0.000017   -0.00    123.45   
    31. A(C   1,C   2,H  10)          118.69 -0.000110    0.03    118.72   
    32. A(C   4,C   2,O   5)           48.12 -0.000125    0.02     48.14   
    33. A(C   1,C   2,C   3)          103.65 -0.000014    0.08    103.73   
    34. A(C   3,C   2,O   5)           88.50 -0.000070   -0.02     88.48   
    35. A(C   1,C   2,O   5)          102.26 -0.000050   -0.02    102.23   
    36. A(C   3,C   2,C   4)           51.13  0.000048   -0.01     51.12   
    37. A(C   4,C   2,H  10)          156.97  0.000154   -0.06    156.91   
    38. A(C   1,C   2,C   4)           82.96 -0.000033    0.00     82.96   
    39. A(C   2,C   3,H  11)          112.23  0.000241   -0.15    112.08   
    40. A(C   2,C   3,C   4)           77.74 -0.000104    0.02     77.76   
    41. A(C   4,C   3,H  12)          119.46 -0.000095    0.11    119.57   
    42. A(C   2,C   3,H  12)          119.46 -0.000088    0.10    119.57   
    43. A(C   4,C   3,H  11)          112.22  0.000240   -0.14    112.07   
    44. A(H  11,C   3,H  12)          111.76 -0.000138    0.03    111.79   
    45. A(C   3,C   4,O   5)           88.49 -0.000068   -0.02     88.47   
    46. A(C   2,C   4,O   5)           48.11 -0.000132    0.02     48.13   
    47. A(C   0,C   4,O   5)          102.27 -0.000048   -0.02    102.26   
    48. A(C   0,C   4,C   2)           82.96 -0.000029   -0.00     82.96   
    49. A(C   3,C   4,H  13)          123.44  0.000003    0.00    123.44   
    50. A(C   2,C   4,H  13)          156.95  0.000139   -0.05    156.90   
    51. A(C   0,C   4,H  13)          118.71 -0.000099    0.03    118.74   
    52. A(C   2,C   4,C   3)           51.13  0.000056   -0.01     51.12   
    53. A(C   0,C   4,C   3)          103.63 -0.000009    0.07    103.70   
    54. A(O   5,C   4,H  13)          114.71  0.000231   -0.08    114.63   
    55. A(C   2,O   5,C   4)           83.77  0.000257   -0.05     83.72   
    56. D(H   9,C   1,C   0,H   6)      0.03 -0.000017    0.03      0.06   
    57. D(H   9,C   1,C   0,H   7)    124.81  0.000175   -0.07    124.73   
    58. D(C   2,C   1,C   0,H   6)    116.62  0.000137   -0.03    116.59   
    59. D(C   2,C   1,C   0,C   4)      0.03  0.000002    0.01      0.04   
    60. D(H   8,C   1,C   0,H   6)   -124.74 -0.000206    0.13   -124.62   
    61. D(H   8,C   1,C   0,H   7)      0.04 -0.000013    0.03      0.06   
    62. D(C   2,C   1,C   0,H   7)   -118.60  0.000330   -0.14   -118.74   
    63. D(H   9,C   1,C   0,C   4)   -116.56 -0.000153    0.07   -116.49   
    64. D(H   8,C   1,C   0,C   4)    118.67 -0.000341    0.17    118.84   
    65. D(C   4,C   2,C   1,H   9)    117.79 -0.000114    0.01    117.80   
    66. D(H  10,C   2,C   1,H   9)    -53.88 -0.000178    0.09    -53.79   
    67. D(C   3,C   2,C   1,H   8)    -72.48  0.000125   -0.15    -72.63   
    68. D(C   3,C   2,C   1,C   0)     47.08  0.000042   -0.05     47.03   
    69. D(H  10,C   2,C   1,C   0)   -171.70 -0.000066    0.07   -171.63   
    70. D(H  10,C   2,C   1,H   8)     68.74  0.000017   -0.03     68.71   
    71. D(O   5,C   2,C   1,H   8)   -163.93  0.000213   -0.14   -164.07   
    72. D(O   5,C   2,C   1,H   9)     73.45  0.000018   -0.02     73.43   
    73. D(O   5,C   2,C   1,C   0)    -44.37  0.000130   -0.04    -44.41   
    74. D(C   4,C   2,C   1,H   8)   -119.58  0.000081   -0.11   -119.69   
    75. D(C   4,C   2,C   1,C   0)     -0.03 -0.000002   -0.01     -0.04   
    76. D(C   3,C   2,C   1,H   9)    164.89 -0.000071   -0.03    164.86   
    77. D(H  11,C   3,C   2,H  10)     42.93 -0.000017    0.06     43.00   
    78. D(C   4,C   3,C   2,O   5)     33.22 -0.000062    0.05     33.27   
    79. D(C   4,C   3,C   2,H  10)    152.15  0.000186   -0.07    152.08   
    80. D(H  11,C   3,C   2,C   1)   -178.25 -0.000196    0.21   -178.04   
    81. D(C   4,C   3,C   2,C   1)    -69.03  0.000006    0.08    -68.95   
    82. D(H  11,C   3,C   2,C   4)   -109.22 -0.000202    0.13   -109.08   
    83. D(H  11,C   3,C   2,O   5)    -76.00 -0.000265    0.19    -75.81   
    84. D(H  12,C   3,C   2,C   4)    117.09 -0.000167    0.14    117.23   
    85. D(H  12,C   3,C   2,O   5)    150.30 -0.000229    0.19    150.50   
    86. D(H  12,C   3,C   2,C   1)     48.05 -0.000161    0.22     48.27   
    87. D(H  12,C   3,C   2,H  10)    -90.76  0.000018    0.07    -90.69   
    88. D(C   2,C   4,C   3,H  11)    109.23  0.000203   -0.14    109.10   
    89. D(C   0,C   4,C   3,H  12)    -48.03  0.000160   -0.21    -48.25   
    90. D(C   0,C   4,C   3,H  11)    178.29  0.000203   -0.21    178.07   
    91. D(H  13,C   4,C   2,H  10)     -0.03 -0.000004    0.01     -0.02   
    92. D(H  13,C   4,C   2,O   5)    -47.63  0.000019    0.10    -47.53   
    93. D(H  13,C   4,C   2,C   3)     85.02  0.000003    0.03     85.05   
    94. D(O   5,C   4,C   2,H  10)     47.60 -0.000023   -0.09     47.51   
    95. D(O   5,C   4,C   2,C   3)    132.65 -0.000017   -0.07    132.58   
    96. D(O   5,C   4,C   2,C   1)   -113.46 -0.000028    0.04   -113.41   
    97. D(C   3,C   4,C   2,H  10)    -85.05 -0.000007   -0.02    -85.07   
    98. D(C   3,C   4,C   2,O   5)   -132.65  0.000017    0.07   -132.58   
    99. D(C   3,C   4,C   2,C   1)    113.89 -0.000011    0.11    114.01   
   100. D(C   0,C   4,C   2,H  10)    161.09  0.000007   -0.13    160.96   
   101. D(C   0,C   4,C   2,O   5)    113.49  0.000030   -0.04    113.45   
   102. D(C   0,C   4,C   2,C   3)   -113.87  0.000013   -0.10   -113.97   
   103. D(C   0,C   4,C   2,C   1)      0.03  0.000002    0.01      0.04   
   104. D(H  13,C   4,C   0,H   7)    -68.78 -0.000012    0.00    -68.78   
   105. D(H  13,C   4,C   0,H   6)     53.85  0.000192   -0.12     53.73   
   106. D(H  13,C   4,C   0,C   1)    171.67  0.000058   -0.09    171.58   
   107. D(O   5,C   4,C   0,H   7)    163.85 -0.000210    0.11    163.96   
   108. D(O   5,C   4,C   0,H   6)    -73.52 -0.000007   -0.01    -73.53   
   109. D(H  13,C   4,C   2,C   1)   -161.09 -0.000009    0.15   -160.94   
   110. D(O   5,C   4,C   0,C   1)     44.30 -0.000140    0.02     44.32   
   111. D(C   3,C   4,C   0,H   7)     72.42 -0.000125    0.12     72.54   
   112. D(C   3,C   4,C   0,H   6)   -164.95  0.000079   -0.00   -164.96   
   113. D(C   0,C   4,C   3,C   2)     69.05 -0.000000   -0.08     68.98   
   114. D(C   3,C   4,C   0,C   1)    -47.14 -0.000054    0.03    -47.10   
   115. D(C   2,C   4,C   0,H   7)    119.53 -0.000072    0.08    119.61   
   116. D(H  13,C   4,C   3,H  11)    -42.90  0.000032   -0.07    -42.98   
   117. D(C   2,C   4,C   3,H  12)   -117.09  0.000160   -0.14   -117.22   
   118. D(C   2,C   4,C   0,H   6)   -117.85  0.000132   -0.04   -117.89   
   119. D(H  13,C   4,C   3,C   2)   -152.14 -0.000172    0.06   -152.07   
   120. D(O   5,C   4,C   3,H  12)   -150.30  0.000226   -0.19   -150.49   
   121. D(C   2,C   4,C   0,C   1)     -0.03 -0.000002   -0.01     -0.04   
   122. D(O   5,C   4,C   3,H  11)     76.02  0.000269   -0.19     75.83   
   123. D(H  13,C   4,C   3,H  12)     90.78 -0.000012   -0.07     90.70   
   124. D(O   5,C   4,C   3,C   2)    -33.21  0.000066   -0.05    -33.27   
   125. D(C   2,O   5,C   4,H  13)    161.43  0.000080    0.01    161.44   
   126. D(C   2,O   5,C   4,C   3)     34.95  0.000044    0.04     34.99   
   127. D(C   2,O   5,C   4,C   0)    -68.68  0.000069   -0.03    -68.71   
[...]
  17   2.0000      -0.366521        -9.9735 
  18   2.0000      -0.363120        -9.8810 
  19   2.0000      -0.362426        -9.8621 
  20   2.0000      -0.334309        -9.0970 
  21   2.0000      -0.324789        -8.8380 
  22   2.0000      -0.261982        -7.1289 
  23   0.0000       0.071030         1.9328 
  24   0.0000       0.095866         2.6087 
  25   0.0000       0.106074         2.8864 
  26   0.0000       0.112593         3.0638 
  27   0.0000       0.121958         3.3187 
  28   0.0000       0.141344         3.8462 
  29   0.0000       0.146238         3.9793 
  30   0.0000       0.157741         4.2923 
  31   0.0000       0.167375         4.5545 
  32   0.0000       0.187453         5.1009 
  33   0.0000       0.199924         5.4402 
  34   0.0000       0.213711         5.8154 
  35   0.0000       0.233165         6.3447 
  36   0.0000       0.267787         7.2868 
  37   0.0000       0.316131         8.6024 
  38   0.0000       0.429857        11.6970 
  39   0.0000       0.464155        12.6303 
  40   0.0000       0.472062        12.8455 
  41   0.0000       0.486950        13.2506 
  42   0.0000       0.500159        13.6100 
  43   0.0000       0.514213        13.9925 
  44   0.0000       0.580515        15.7966 
  45   0.0000       0.581996        15.8369 
  46   0.0000       0.592550        16.1241 
  47   0.0000       0.609282        16.5794 
  48   0.0000       0.626198        17.0397 
  49   0.0000       0.643243        17.5035 
  50   0.0000       0.648605        17.6494 
  51   0.0000       0.661222        17.9928 
  52   0.0000       0.671797        18.2805 
  53   0.0000       0.683261        18.5925 
  54   0.0000       0.691152        18.8072 
  55   0.0000       0.705223        19.1901 
  56   0.0000       0.717524        19.5248 
  57   0.0000       0.727248        19.7894 
  58   0.0000       0.751666        20.4539 
  59   0.0000       0.781171        21.2567 
  60   0.0000       0.794498        21.6194 
  61   0.0000       0.848738        23.0953 
  62   0.0000       0.934707        25.4347 
  63   0.0000       1.010552        27.4985 
  64   0.0000       1.066422        29.0188 
  65   0.0000       1.072812        29.1927 
  66   0.0000       1.143750        31.1230 
  67   0.0000       1.170227        31.8435 
  68   0.0000       1.272912        34.6377 
  69   0.0000       1.331469        36.2311 
  70   0.0000       1.353086        36.8193 
  71   0.0000       1.402359        38.1601 
  72   0.0000       1.467068        39.9209 
  73   0.0000       1.495083        40.6833 
  74   0.0000       1.567256        42.6472 
  75   0.0000       1.578471        42.9524 
  76   0.0000       1.604972        43.6735 
  77   0.0000       1.619983        44.0820 
  78   0.0000       1.648896        44.8687 
  79   0.0000       1.686626        45.8954 
  80   0.0000       1.730529        47.0901 
  81   0.0000       1.734722        47.2042 
  82   0.0000       1.744394        47.4674 
  83   0.0000       1.779446        48.4212 
  84   0.0000       1.798582        48.9419 
  85   0.0000       1.805644        49.1341 
  86   0.0000       1.831567        49.8395 
  87   0.0000       1.858810        50.5808 
  88   0.0000       1.891725        51.4765 
  89   0.0000       1.902330        51.7650 
  90   0.0000       1.952863        53.1401 
  91   0.0000       1.957242        53.2593 
  92   0.0000       2.003055        54.5059 
  93   0.0000       2.003528        54.5188 
  94   0.0000       2.029201        55.2174 
  95   0.0000       2.065116        56.1947 
  96   0.0000       2.077639        56.5354 
  97   0.0000       2.155920        58.6656 
  98   0.0000       2.236883        60.8687 
  99   0.0000       2.249057        61.2000 
 100   0.0000       2.258178        61.4482 
 101   0.0000       2.268844        61.7384 
 102   0.0000       2.304063        62.6967 
 103   0.0000       2.385887        64.9233 
 104   0.0000       2.402128        65.3652 
 105   0.0000       2.433782        66.2266 
 106   0.0000       2.593940        70.5847 
 107   0.0000       2.602641        70.8215 
 108   0.0000       2.612824        71.0986 
 109   0.0000       2.690673        73.2169 
 110   0.0000       2.741037        74.5874 
 111   0.0000       2.839060        77.2548 
 112   0.0000       2.847257        77.4778 
 113   0.0000       2.863119        77.9094 
 114   0.0000       2.872141        78.1549 
 115   0.0000       2.928686        79.6936 
 116   0.0000       2.940661        80.0195 
 117   0.0000       3.010425        81.9178 
 118   0.0000       3.078787        83.7780 
 119   0.0000       3.095428        84.2309 
 120   0.0000       3.113419        84.7204 
 121   0.0000       3.117280        84.8255 
 122   0.0000       3.272730        89.0555 
 123   0.0000       3.511673        95.5575 

                    ********************************
                    * MULLIKEN POPULATION ANALYSIS *
                    ********************************

-----------------------
MULLIKEN ATOMIC CHARGES
-----------------------
   0 C :    0.038877
   1 C :    0.038891
   2 C :   -0.012787
   3 C :    0.005183
   4 C :   -0.012647
   5 O :   -0.392475
   6 H :    0.048207
   7 H :    0.037461
   8 H :    0.037614
   9 H :    0.048285
  10 H :    0.032120
  11 H :    0.057395
  12 H :    0.041607
  13 H :    0.032268
Sum of atomic charges:   -0.0000000

--------------------------------
MULLIKEN REDUCED ORBITAL CHARGES
--------------------------------
  0 C s       :     2.950810  s :     2.950810
      pz      :     0.976629  p :     2.976792
      px      :     0.981175
      py      :     1.018987
      dz2     :     0.003400  d :     0.033522
      dxz     :     0.009673
      dyz     :     0.007237
      dx2y2   :     0.005430
      dxy     :     0.007782
  1 C s       :     2.951406  s :     2.951406
      pz      :     1.030835  p :     2.976190
      px      :     0.933056
      py      :     1.012299
      dz2     :     0.008895  d :     0.033513
      dxz     :     0.006216
      dyz     :     0.005608
      dx2y2   :     0.007504
      dxy     :     0.005289
  2 C s       :     3.282230  s :     3.282230
      pz      :     0.945996  p :     2.656789
      px      :     1.011442
      py      :     0.699351
      dz2     :     0.014034  d :     0.073768
      dxz     :     0.012571
      dyz     :     0.013922
      dx2y2   :     0.019064
      dxy     :     0.014179
  3 C s       :     3.088274  s :     3.088274
      pz      :     0.936358  p :     2.872115
      px      :     0.990911
      py      :     0.944846
      dz2     :     0.008866  d :     0.034428
      dxz     :     0.007188
      dyz     :     0.004921
      dx2y2   :     0.005921
      dxy     :     0.007532
  4 C s       :     3.282279  s :     3.282279
      pz      :     0.863101  p :     2.656628
      px      :     0.839156
      py      :     0.954372
      dz2     :     0.010763  d :     0.073741
      dxz     :     0.019748
      dyz     :     0.014945
      dx2y2   :     0.016056
      dxy     :     0.012229
  5 O s       :     3.833280  s :     3.833280
      pz      :     1.586057  p :     4.540983
      px      :     1.577033
      py      :     1.377893
      dz2     :     0.002726  d :     0.018212
      dxz     :     0.003650
      dyz     :     0.003087
      dx2y2   :     0.005759
      dxy     :     0.002990
  6 H s       :     0.929273  s :     0.929273
      pz      :     0.006227  p :     0.022520
      px      :     0.005254
      py      :     0.011039
  7 H s       :     0.939977  s :     0.939977
      pz      :     0.006551  p :     0.022562
      px      :     0.009889
      py      :     0.006122
  8 H s       :     0.939825  s :     0.939825
      pz      :     0.004139  p :     0.022561
      px      :     0.005412
      py      :     0.013011
  9 H s       :     0.929196  s :     0.929196
      pz      :     0.013084  p :     0.022519
      px      :     0.003975
      py      :     0.005460
 10 H s       :     0.946403  s :     0.946403
      pz      :     0.005940  p :     0.021477
      px      :     0.010907
      py      :     0.004629
 11 H s       :     0.919693  s :     0.919693
      pz      :     0.007068  p :     0.022911
      px      :     0.011705
      py      :     0.004138
 12 H s       :     0.936114  s :     0.936114
      pz      :     0.004668  p :     0.022279
      px      :     0.007556
      py      :     0.010054
 13 H s       :     0.946255  s :     0.946255
      pz      :     0.008871  p :     0.021477
      px      :     0.003152
      py      :     0.009454


                     *******************************
                     * LOEWDIN POPULATION ANALYSIS *
                     *******************************

----------------------
LOEWDIN ATOMIC CHARGES
----------------------
   0 C :   -0.049610
   1 C :   -0.049632
   2 C :    0.076893
   3 C :   -0.050194
   4 C :    0.076945
   5 O :   -0.202630
   6 H :    0.030699
   7 H :    0.026563
   8 H :    0.026560
   9 H :    0.030776
  10 H :    0.014984
  11 H :    0.033897
  12 H :    0.019718
  13 H :    0.015030

-------------------------------
LOEWDIN REDUCED ORBITAL CHARGES
-------------------------------
  0 C s       :     2.854580  s :     2.854580
      pz      :     1.036210  p :     3.109671
      px      :     1.022086
      py      :     1.051375
      dz2     :     0.006502  d :     0.085359
      dxz     :     0.027024
      dyz     :     0.018771
      dx2y2   :     0.013165
      dxy     :     0.019897
  1 C s       :     2.854637  s :     2.854637
      pz      :     1.040752  p :     3.109642
      px      :     1.020322
      py      :     1.048568
      dz2     :     0.022174  d :     0.085353
      dxz     :     0.016593
      dyz     :     0.013535
      dx2y2   :     0.019513
      dxy     :     0.013537
  2 C s       :     2.873540  s :     2.873540
      pz      :     1.021027  p :     2.888388
      px      :     1.046210
      py      :     0.821151
      dz2     :     0.032538  d :     0.161180
      dxz     :     0.030414
      dyz     :     0.027398
      dx2y2   :     0.042147
      dxy     :     0.028683
  3 C s       :     2.866898  s :     2.866898
      pz      :     1.016864  p :     3.093879
      px      :     1.052138
      py      :     1.024877
      dz2     :     0.024370  d :     0.089417
      dxz     :     0.018456
      dyz     :     0.011545
      dx2y2   :     0.014560
      dxy     :     0.020486
  4 C s       :     2.873592  s :     2.873592
      pz      :     0.952145  p :     2.888348
      px      :     0.925717
      py      :     1.010485
      dz2     :     0.020236  d :     0.161115
      dxz     :     0.044493
      dyz     :     0.034150
      dx2y2   :     0.036895
      dxy     :     0.025342
  5 O s       :     3.530684  s :     3.530684
      pz      :     1.601893  p :     4.641698
      px      :     1.604758
      py      :     1.435047
      dz2     :     0.004583  d :     0.030248
      dxz     :     0.006501
      dyz     :     0.004732
      dx2y2   :     0.010125
      dxy     :     0.004306
  6 H s       :     0.901245  s :     0.901245
      pz      :     0.019917  p :     0.068056
      px      :     0.016176
      py      :     0.031962
  7 H s       :     0.905590  s :     0.905590
      pz      :     0.019853  p :     0.067847
      px      :     0.029337
      py      :     0.018657
  8 H s       :     0.905592  s :     0.905592
      pz      :     0.013092  p :     0.067848
      px      :     0.017593
      py      :     0.037163
  9 H s       :     0.901170  s :     0.901170
      pz      :     0.038133  p :     0.068053
      px      :     0.013593
      py      :     0.016328
 10 H s       :     0.917989  s :     0.917989
      pz      :     0.019565  p :     0.067027
      px      :     0.032973
      py      :     0.014489
 11 H s       :     0.897056  s :     0.897056
      pz      :     0.021969  p :     0.069047
      px      :     0.034037
      py      :     0.013041
 12 H s       :     0.912787  s :     0.912787
      pz      :     0.015461  p :     0.067495
      px      :     0.021846
      py      :     0.030189
 13 H s       :     0.917938  s :     0.917938
      pz      :     0.026662  p :     0.067032
      px      :     0.011403
      py      :     0.028967


                      *****************************
                      * MAYER POPULATION ANALYSIS *
                      *****************************

  NA   - Mulliken gross atomic population
  ZA   - Total nuclear charge
  QA   - Mulliken gross atomic charge
  VA   - Mayer's total valence
  BVA  - Mayer's bonded valence
  FA   - Mayer's free valence

  ATOM       NA         ZA         QA         VA         BVA        FA
  0 C      5.9611     6.0000     0.0389     3.9700     3.9700    -0.0000
  1 C      5.9611     6.0000     0.0389     3.9697     3.9697     0.0000
  2 C      6.0128     6.0000    -0.0128     3.9771     3.9771    -0.0000
  3 C      5.9948     6.0000     0.0052     3.8627     3.8627     0.0000
  4 C      6.0126     6.0000    -0.0126     3.9772     3.9772     0.0000
  5 O      8.3925     8.0000    -0.3925     1.9597     1.9597    -0.0000
  6 H      0.9518     1.0000     0.0482     0.9837     0.9837    -0.0000
  7 H      0.9625     1.0000     0.0375     0.9782     0.9782     0.0000
  8 H      0.9624     1.0000     0.0376     0.9782     0.9782     0.0000
  9 H      0.9517     1.0000     0.0483     0.9837     0.9837    -0.0000
 10 H      0.9679     1.0000     0.0321     0.9895     0.9895     0.0000
 11 H      0.9426     1.0000     0.0574     0.9872     0.9872    -0.0000
 12 H      0.9584     1.0000     0.0416     0.9798     0.9798    -0.0000
 13 H      0.9677     1.0000     0.0323     0.9895     0.9895     0.0000

  Mayer bond orders larger than 0.100000
B(  0-C ,  1-C ) :   1.0795 B(  0-C ,  4-C ) :   1.0343 B(  0-C ,  6-H ) :   0.9313 
B(  0-C ,  7-H ) :   0.9320 B(  1-C ,  2-C ) :   1.0341 B(  1-C ,  8-H ) :   0.9322 
B(  1-C ,  9-H ) :   0.9313 B(  2-C ,  3-C ) :   1.0028 B(  2-C ,  5-O ) :   0.9369 
B(  2-C , 10-H ) :   0.9691 B(  3-C ,  4-C ) :   1.0025 B(  3-C , 11-H ) :   0.9368 
B(  3-C , 12-H ) :   0.9542 B(  4-C ,  5-O ) :   0.9374 B(  4-C , 13-H ) :   0.9691 



------------------
HIRSHFELD ANALYSIS
------------------

Total integrated alpha density =     23.000016304
Total integrated beta density  =     23.000016304

  ATOM     CHARGE      SPIN    
   0 C   -0.049899    0.000000
   1 C   -0.049931    0.000000
   2 C    0.067615    0.000000
   3 C   -0.056292    0.000000
   4 C    0.067650    0.000000
   5 O   -0.216123    0.000000
   6 H    0.027610    0.000000
   7 H    0.024553    0.000000
   8 H    0.024562    0.000000
   9 H    0.027642    0.000000
  10 H    0.037344    0.000000
  11 H    0.031855    0.000000
  12 H    0.025992    0.000000
  13 H    0.037390    0.000000

  TOTAL  -0.000033    0.000000

-------
TIMINGS
-------

Total SCF time: 0 days 0 hours 0 min 2 sec 

Total time                  ....       2.974 sec
Sum of individual times     ....       2.863 sec  ( 96.3%)

Fock matrix formation       ....       2.355 sec  ( 79.2%)
  Split-RI-J                ....       0.251 sec  ( 10.6% of F)
  Chain of spheres X        ....       1.774 sec  ( 75.3% of F)
  XC integration            ....       0.325 sec  ( 13.8% of F)
    Basis function eval.    ....       0.124 sec  ( 38.3% of XC)
    Density eval.           ....       0.063 sec  ( 19.4% of XC)
    XC-Functional eval.     ....       0.032 sec  (  9.8% of XC)
    XC-Potential eval.      ....       0.059 sec  ( 18.2% of XC)
Diagonalization             ....       0.004 sec  (  0.1%)
Density matrix formation    ....       0.001 sec  (  0.0%)
Population analysis         ....       0.090 sec  (  3.0%)
Initial guess               ....       0.005 sec  (  0.2%)
Orbital Transformation      ....       0.000 sec  (  0.0%)
Orbital Orthonormalization  ....       0.002 sec  (  0.1%)
DIIS solution               ....       0.002 sec  (  0.1%)
SOSCF solution              ....       0.012 sec  (  0.4%)
Grid generation             ....       0.394 sec  ( 13.2%)

Maximum memory used throughout the entire SCF-calculation: 49.4 MB


-------------------------------------------------------------------------------
                          DFT DISPERSION CORRECTION                            
                                                                               
                              DFTD3 V3.1  Rev 1                                
                          USING Becke-Johnson damping                          
-------------------------------------------------------------------------------
The PBE0 functional is recognized
Active option DFTDOPT                   ...         4   

molecular C6(AA) [au] = 1481.763123 


            DFT-D V3
 parameters
 s6 scaling factor         :     1.0000 
 a1 scaling factor         :     0.4145 
 s8 scaling factor         :     1.2177 
 a2 scaling factor         :     4.8593 
 ad hoc parameters k1-k3   :    16.0000     1.3333    -4.0000 

 Edisp/kcal,au: -6.034457004958  -0.009616518333 
 E6   /kcal   :  -3.870268524 
 E8   /kcal   :  -2.164188481 
 % E8         :  35.863847887 

-------------------------   ----------------
Dispersion correction           -0.009616518
-------------------------   ----------------


-------------------------   --------------------
FINAL SINGLE POINT ENERGY      -270.018437158040
-------------------------   --------------------

                                *** OPTIMIZATION RUN DONE ***

                            ***************************************
                            *     ORCA property calculations      *
                            ***************************************

                                    ---------------------
                                    Active property flags
                                    ---------------------
   (+) Dipole Moment


------------------------------------------------------------------------------
                       ORCA ELECTRIC PROPERTIES CALCULATION
------------------------------------------------------------------------------

Dipole Moment Calculation                       ... on
Quadrupole Moment Calculation                   ... off
Polarizability Calculation                      ... off
GBWName                                         ... p0_C5H8O_opt_orca.gbw
Electron density                                ... p0_C5H8O_opt_orca.scfp
The origin for moment calculation is the CENTER OF MASS  = (-0.408416,  0.366333  0.045571)

-------------
DIPOLE MOMENT
-------------
                                X             Y             Z
Electronic contribution:     -2.40530       1.93177       0.04375
Nuclear contribution   :      2.78646      -2.46664      -0.27847
                        -----------------------------------------
Total Dipole Moment    :      0.38115      -0.53487      -0.23472
                        -----------------------------------------
Magnitude (a.u.)       :      0.69747
Magnitude (Debye)      :      1.77282



--------------------
Rotational spectrum 
--------------------
 
Rotational constants in cm-1:     0.188620     0.154536     0.139535 
Rotational constants in MHz :  5654.674586  4632.861599  4183.162611 

 Dipole components along the rotational axes: 
x,y,z [a.u.] :     0.250014    -0.001167     0.651118 
x,y,z [Debye]:     0.635484    -0.002965     1.655010 

 

Timings for individual modules:

Sum of individual times         ...       22.748 sec (=   0.379 min)
GTO integral calculation        ...        1.587 sec (=   0.026 min)   7.0 %
SCF iterations                  ...       16.204 sec (=   0.270 min)  71.2 %
SCF Gradient evaluation         ...        4.833 sec (=   0.081 min)  21.2 %
Geometry relaxation             ...        0.123 sec (=   0.002 min)   0.5 %
                             ****ORCA TERMINATED NORMALLY****
TOTAL RUN TIME: 0 days 0 hours 0 minutes 23 seconds 924 msec
