
                                 *****************
                                 * O   R   C   A *
                                 *****************

                                            #,                                       
                                            ###                                      
                                            ####                                     
                                            #####                                    
                                            ######                                   
                                           ########,                                 
                                     ,,################,,,,,                         
                               ,,#################################,,                 
                          ,,##########################################,,             
                       ,#########################################, ''#####,          
                    ,#############################################,,   '####,        
                  ,##################################################,,,,####,       
                ,###########''''           ''''###############################       
              ,#####''   ,,,,##########,,,,          '''####'''          '####       
            ,##' ,,,,###########################,,,                        '##       
           ' ,,###''''                  '''############,,,                           
         ,,##''                                '''############,,,,        ,,,,,,###''
      ,#''                                            '''#######################'''  
     '                                                          ''''####''''         
             ,#######,   #######,   ,#######,      ##                                
            ,#'     '#,  ##    ##  ,#'     '#,    #''#        ######   ,####,        
            ##       ##  ##   ,#'  ##            #'  '#       #        #'  '#        
            ##       ##  #######   ##           ,######,      #####,   #    #        
            '#,     ,#'  ##    ##  '#,     ,#' ,#      #,         ##   #,  ,#        
             '#######'   ##     ##  '#######'  #'      '#     #####' # '####'        



                  #######################################################
                  #                        -***-                        #
                  #          Department of theory and spectroscopy      #
                  #    Directorship and core code : Frank Neese         #
                  #        Max Planck Institute fuer Kohlenforschung    #
                  #                Kaiser Wilhelm Platz 1               #
                  #                 D-45470 Muelheim/Ruhr               #
                  #                      Germany                        #
                  #                                                     #
                  #                  All rights reserved                #
                  #                        -***-                        #
                  #######################################################


                         Program Version 5.0.4 -  RELEASE  -


 With contributions from (in alphabetic order):
   Daniel Aravena         : Magnetic Suceptibility
   Michael Atanasov       : Ab Initio Ligand Field Theory (pilot matlab implementation)
   Alexander A. Auer      : GIAO ZORA, VPT2 properties, NMR spectrum
   Ute Becker             : Parallelization
   Giovanni Bistoni       : ED, misc. LED, open-shell LED, HFLD
   Martin Brehm           : Molecular dynamics
   Dmytro Bykov           : SCF Hessian
   Vijay G. Chilkuri      : MRCI spin determinant printing, contributions to CSF-ICE
   Dipayan Datta          : RHF DLPNO-CCSD density
   Achintya Kumar Dutta   : EOM-CC, STEOM-CC
   Dmitry Ganyushin       : Spin-Orbit,Spin-Spin,Magnetic field MRCI
   Miquel Garcia          : C-PCM and meta-GGA Hessian, CC/C-PCM, Gaussian charge scheme
   Yang Guo               : DLPNO-NEVPT2, F12-NEVPT2, CIM, IAO-localization
   Andreas Hansen         : Spin unrestricted coupled pair/coupled cluster methods
   Benjamin Helmich-Paris : MC-RPA, TRAH-SCF, COSX integrals
   Lee Huntington         : MR-EOM, pCC
   Robert Izsak           : Overlap fitted RIJCOSX, COSX-SCS-MP3, EOM
   Marcus Kettner         : VPT2
   Christian Kollmar      : KDIIS, OOCD, Brueckner-CCSD(T), CCSD density, CASPT2, CASPT2-K
   Simone Kossmann        : Meta GGA functionals, TD-DFT gradient, OOMP2, MP2 Hessian
   Martin Krupicka        : Initial AUTO-CI
   Lucas Lang             : DCDCAS
   Marvin Lechner         : AUTO-CI (C++ implementation), FIC-MRCC
   Dagmar Lenk            : GEPOL surface, SMD
   Dimitrios Liakos       : Extrapolation schemes; Compound Job, initial MDCI parallelization
   Dimitrios Manganas     : Further ROCIS development; embedding schemes
   Dimitrios Pantazis     : SARC Basis sets
   Anastasios Papadopoulos: AUTO-CI, single reference methods and gradients
   Taras Petrenko         : DFT Hessian,TD-DFT gradient, ASA, ECA, R-Raman, ABS, FL, XAS/XES, NRVS
   Peter Pinski           : DLPNO-MP2, DLPNO-MP2 Gradient
   Christoph Reimann      : Effective Core Potentials
   Marius Retegan         : Local ZFS, SOC
   Christoph Riplinger    : Optimizer, TS searches, QM/MM, DLPNO-CCSD(T), (RO)-DLPNO pert. Triples
   Tobias Risthaus        : Range-separated hybrids, TD-DFT gradient, RPA, STAB
   Michael Roemelt        : Original ROCIS implementation
   Masaaki Saitow         : Open-shell DLPNO-CCSD energy and density
   Barbara Sandhoefer     : DKH picture change effects
   Avijit Sen             : IP-ROCIS
   Kantharuban Sivalingam : CASSCF convergence, NEVPT2, FIC-MRCI
   Bernardo de Souza      : ESD, SOC TD-DFT
   Georgi Stoychev        : AutoAux, RI-MP2 NMR, DLPNO-MP2 response
   Willem Van den Heuvel  : Paramagnetic NMR
   Boris Wezisla          : Elementary symmetry handling
   Frank Wennmohs         : Technical directorship


 We gratefully acknowledge several colleagues who have allowed us to
 interface, adapt or use parts of their codes:
   Stefan Grimme, W. Hujo, H. Kruse, P. Pracht,  : VdW corrections, initial TS optimization,
                  C. Bannwarth, S. Ehlert          DFT functionals, gCP, sTDA/sTD-DF
   Ed Valeev, F. Pavosevic, A. Kumar             : LibInt (2-el integral package), F12 methods
   Garnet Chan, S. Sharma, J. Yang, R. Olivares  : DMRG
   Ulf Ekstrom                                   : XCFun DFT Library
   Mihaly Kallay                                 : mrcc  (arbitrary order and MRCC methods)
   Jiri Pittner, Ondrej Demel                    : Mk-CCSD
   Frank Weinhold                                : gennbo (NPA and NBO analysis)
   Christopher J. Cramer and Donald G. Truhlar   : smd solvation model
   Lars Goerigk                                  : TD-DFT with DH, B97 family of functionals
   V. Asgeirsson, H. Jonsson                     : NEB implementation
   FAccTs GmbH                                   : IRC, NEB, NEB-TS, DLPNO-Multilevel, CI-OPT
                                                   MM, QMMM, 2- and 3-layer-ONIOM, Crystal-QMMM,
                                                   LR-CPCM, SF, NACMEs, symmetry and pop. for TD-DFT,
                                                   nearIR, NL-DFT gradient (VV10), updates on ESD,
                                                   ML-optimized integration grids
   S Lehtola, MJT Oliveira, MAL Marques          : LibXC Library
   Liviu Ungur et al                             : ANISO software


 Your calculation uses the libint2 library for the computation of 2-el integrals
 For citations please refer to: http://libint.valeyev.net

 Your ORCA version has been built with support for libXC version: 5.1.0
 For citations please refer to: https://tddft.org/programs/libxc/

 This ORCA versions uses:
   CBLAS   interface :  Fast vector & matrix operations
   LAPACKE interface :  Fast linear algebra routines
   SCALAPACK package :  Parallel linear algebra routines
   Shared memory     :  Shared parallel matrices
   BLAS/LAPACK       :  OpenBLAS 0.3.15  USE64BITINT DYNAMIC_ARCH NO_AFFINITY SkylakeX SINGLE_THREADED
        Core in use  :  SkylakeX
   Copyright (c) 2011-2014, The OpenBLAS Project


Your calculation utilizes the atom-pairwise dispersion correction
with the Becke-Johnson damping scheme (D3BJ)
Cite in your paper:
S.Grimme, S.Ehrlich, L.Goerigk, J Comput Chem, (2011), 32, 1456–1465 
S.Grimme, J.Antony, S.Ehrlich and H.Krieg, J.Chem.Phys., 132, (2010), 154104 
   

================================================================================

----- Orbital basis set information -----
Your calculation utilizes the basis: def2-SVP
   F. Weigend and R. Ahlrichs, Phys. Chem. Chem. Phys. 7, 3297 (2005).

----- AuxJ basis set information -----
Your calculation utilizes the auxiliary basis: def2/J
   F. Weigend, Phys. Chem. Chem. Phys. 8, 1057 (2006).

================================================================================
                                        WARNINGS
                       Please study these warnings very carefully!
================================================================================


WARNING: your system is open-shell and RHF/RKS was chosen
  ===> : WILL SWITCH to UHF/UKS


WARNING: Geometry Optimization
  ===> : Switching off AutoStart
         For restart on a previous wavefunction, please use MOREAD

INFO   : the flag for use of the SHARK integral package has been found!

================================================================================
                                       INPUT FILE
================================================================================
NAME = r0_C5H9O2_opt_orca.inp
|  1> ! Opt PBE0 RIJCOSX D3BJ def2-SVP def2/J 
|  2> %output 
|  3> xyzfile=True 
|  4> end 
|  5> %scf 
|  6> maxiter 250 
|  7> end
|  8> %output
|  9> Print[P_Hirshfeld] = 1
| 10> end
| 11> % maxcore
| 12> 4000
| 13> %pal nprocs 8
| 14> end
| 15> *xyz 0 2
| 16> O    2.15567183  -1.15761170   1.08519664 
| 17> O    1.53975362   0.05206892   0.68122860 
| 18> C    0.71202630  -0.22556872  -0.43247591 
| 19> C   -0.43601418  -1.17750351  -0.07420453 
| 20> C   -1.49933408  -0.27431649   0.45903235 
| 21> C   -1.16564384   1.16159395   0.22526976 
| 22> C    0.01753009   1.09463698  -0.75615844 
| 23> H    3.08309987  -0.97492722   0.87513327 
| 24> H    1.33400300  -0.61118966  -1.26238488 
| 25> H   -0.10601458  -1.95654251   0.63149588 
| 26> H   -0.76573189  -1.70269637  -0.99587007 
| 27> H   -2.37253206  -0.61862276   1.02058054 
| 28> H   -0.84386075   1.64798210   1.16923450 
| 29> H   -2.00985651   1.75725757  -0.16408762 
| 30> H    0.70725790   1.94724146  -0.66821679 
| 31> H   -0.35005475   1.03839797  -1.79377331 
| 32> *
| 33> 
| 34>                          ****END OF INPUT****
================================================================================

                       *****************************
                       * Geometry Optimization Run *
                       *****************************

Geometry optimization settings:
Update method            Update   .... BFGS
Choice of coordinates    CoordSys .... Z-matrix Internals
Initial Hessian          InHess   .... Almoef's Model

Convergence Tolerances:
Energy Change            TolE     ....  5.0000e-06 Eh
Max. Gradient            TolMAXG  ....  3.0000e-04 Eh/bohr
RMS Gradient             TolRMSG  ....  1.0000e-04 Eh/bohr
Max. Displacement        TolMAXD  ....  4.0000e-03 bohr
RMS Displacement         TolRMSD  ....  2.0000e-03 bohr
Strict Convergence                ....  False
------------------------------------------------------------------------------
                        ORCA OPTIMIZATION COORDINATE SETUP
------------------------------------------------------------------------------

The optimization will be done in new redundant internal coordinates
Making redundant internal coordinates   ...  (new redundants) done
Evaluating the initial hessian          ...  (Almloef) done
Evaluating the coordinates              ...  done
Calculating the B-matrix                .... done
Calculating the G-matrix                .... done
Diagonalizing the G-matrix              .... done
The first mode is                       ....   46
The number of degrees of freedom        ....   42

    -----------------------------------------------------------------
                    Redundant Internal Coordinates


    -----------------------------------------------------------------
         Definition                    Initial Value    Approx d2E/dq
    -----------------------------------------------------------------
      1. B(O   1,O   0)                  1.4163         0.455062   
      2. B(C   2,O   1)                  1.4151         0.510275   
      3. B(C   3,C   2)                  1.5338         0.368399   
      4. B(C   4,C   3)                  1.4936         0.427077   
      5. B(C   5,C   4)                  1.4926         0.428606   
      6. B(C   6,C   5)                  1.5387         0.361829   
      7. B(C   6,C   2)                  1.5264         0.378484   
      8. B(H   7,O   0)                  0.9683         0.504324   
      9. B(H   8,C   2)                  1.1065         0.338941   
     10. B(H   9,C   3)                  1.1017         0.344909   
     11. B(H  10,C   3)                  1.1109         0.333536   
     12. B(H  11,C   4)                  1.0938         0.355132   
     13. B(H  12,C   5)                  1.1096         0.335097   
     14. B(H  13,C   5)                  1.1041         0.341881   
     15. B(H  14,C   6)                  1.1002         0.346884   
     16. B(H  15,C   6)                  1.1022         0.344271   
     17. A(O   1,O   0,H   7)          101.1573         0.347121   
     18. A(O   0,O   1,C   2)          108.1361         0.389274   
     19. A(O   1,C   2,H   8)          109.2608         0.336040   
     20. A(C   3,C   2,H   8)          112.3116         0.320384   
     21. A(O   1,C   2,C   6)          105.2673         0.381856   
     22. A(C   3,C   2,C   6)          104.2272         0.363296   
     23. A(O   1,C   2,C   3)          112.0702         0.380072   
     24. A(C   6,C   2,H   8)          113.4612         0.321802   
     25. A(C   2,C   3,H   9)          111.3633         0.321300   
     26. A(C   4,C   3,H   9)          114.3404         0.329202   
     27. A(C   4,C   3,H  10)          111.7653         0.327386   
     28. A(H   9,C   3,H  10)          106.6213         0.285443   
     29. A(C   2,C   3,C   4)          103.9433         0.370898   
     30. A(C   2,C   3,H  10)          108.7711         0.319543   
     31. A(C   5,C   4,H  11)          124.1745         0.330991   
     32. A(C   3,C   4,H  11)          124.1455         0.330795   
     33. A(C   3,C   4,C   5)          111.5108         0.380724   
     34. A(C   4,C   5,C   6)          103.2935         0.369980   
     35. A(H  12,C   5,H  13)          106.5738         0.285259   
     36. A(C   6,C   5,H  13)          112.7359         0.319894   
     37. A(C   4,C   5,H  13)          113.7841         0.328917   
     38. A(C   6,C   5,H  12)          109.7979         0.318849   
     39. A(C   4,C   5,H  12)          110.6893         0.327831   
     40. A(H  14,C   6,H  15)          108.8966         0.287112   
     41. A(C   5,C   6,H  15)          110.2563         0.320258   
     42. A(C   2,C   6,H  15)          107.8917         0.322626   
     43. A(C   5,C   6,H  14)          113.4134         0.320655   
     44. A(C   2,C   6,H  14)          111.5971         0.323026   
     45. A(C   2,C   6,C   5)          104.6099         0.362181   
     46. D(C   2,O   1,O   0,H   7)    113.1317         0.015351   
     47. D(C   6,C   2,O   1,O   0)    176.5264         0.020614   
     48. D(C   3,C   2,O   1,O   0)     63.8471         0.020614   
     49. D(H   8,C   2,O   1,O   0)    -61.2964         0.020614   
     50. D(H  10,C   3,C   2,H   8)    -32.0543         0.010855   
     51. D(C   4,C   3,C   2,H   8)   -151.2573         0.010855   
     52. D(C   4,C   3,C   2,C   6)    -28.0268         0.010855   
     53. D(H   9,C   3,C   2,H   8)     85.1615         0.010855   
     54. D(H  10,C   3,C   2,C   6)     91.1762         0.010855   
     55. D(H  10,C   3,C   2,O   1)   -155.4996         0.010855   
     56. D(C   4,C   3,C   2,O   1)     85.2974         0.010855   
     57. D(H   9,C   3,C   2,O   1)    -38.2838         0.010855   
     58. D(H   9,C   3,C   2,C   6)   -151.6080         0.010855   
     59. D(C   5,C   4,C   3,H   9)    131.5727         0.013475   
     60. D(C   5,C   4,C   3,C   2)      9.9536         0.013475   
     61. D(H  11,C   4,C   3,H  10)     77.3785         0.013475   
     62. D(H  11,C   4,C   3,H   9)    -43.8642         0.013475   
     63. D(H  11,C   4,C   3,C   2)   -165.4833         0.013475   
     64. D(C   5,C   4,C   3,H  10)   -107.1845         0.013475   
     65. D(H  13,C   5,C   4,H  11)    -50.0560         0.013569   
     66. D(H  13,C   5,C   4,C   3)    134.5086         0.013569   
     67. D(H  12,C   5,C   4,H  11)     69.9210         0.013569   
     68. D(H  12,C   5,C   4,C   3)   -105.5143         0.013569   
     69. D(C   6,C   5,C   4,C   3)     11.9534         0.013569   
     70. D(C   6,C   5,C   4,H  11)   -172.6112         0.013569   
     71. D(H  14,C   6,C   2,C   3)    158.9429         0.011422   
     72. D(H  14,C   6,C   2,O   1)     40.8425         0.011422   
     73. D(C   5,C   6,C   2,H   8)    158.4086         0.011422   
     74. D(C   5,C   6,C   2,C   3)     35.9296         0.011422   
     75. D(H  14,C   6,C   2,H   8)    -78.5780         0.011422   
     76. D(C   5,C   6,C   2,O   1)    -82.1709         0.011422   
     77. D(H  15,C   6,C   5,H  12)   -155.4133         0.010496   
     78. D(H  15,C   6,C   5,C   4)     86.4950         0.010496   
     79. D(H  14,C   6,C   5,H  13)     85.6544         0.010496   
     80. D(H  14,C   6,C   5,H  12)    -33.0023         0.010496   
     81. D(H  14,C   6,C   5,C   4)   -151.0940         0.010496   
     82. D(C   2,C   6,C   5,H  13)   -152.5171         0.010496   
     83. D(C   2,C   6,C   5,H  12)     88.8262         0.010496   
     84. D(C   2,C   6,C   5,C   4)    -29.2656         0.010496   
     85. D(H  15,C   6,C   2,H   8)     41.0136         0.011422   
     86. D(H  15,C   6,C   2,C   3)    -81.4655         0.011422   
     87. D(H  15,C   6,C   5,H  13)    -36.7566         0.010496   
     88. D(H  15,C   6,C   2,O   1)    160.4341         0.011422   
    -----------------------------------------------------------------

Number of atoms                         .... 16
Number of degrees of freedom            .... 88

         *************************************************************
         *                GEOMETRY OPTIMIZATION CYCLE   1            *
         *************************************************************
---------------------------------
CARTESIAN COORDINATES (ANGSTROEM)
---------------------------------
  O      2.155672   -1.157612    1.085197
  O      1.539754    0.052069    0.681229
  C      0.712026   -0.225569   -0.432476
  C     -0.436014   -1.177504   -0.074205
  C     -1.499334   -0.274316    0.459032
  C     -1.165644    1.161594    0.225270
  C      0.017530    1.094637   -0.756158
  H      3.083100   -0.974927    0.875133
  H      1.334003   -0.611190   -1.262385
  H     -0.106015   -1.956543    0.631496
  H     -0.765732   -1.702696   -0.995870
  H     -2.372532   -0.618623    1.020581
  H     -0.843861    1.647982    1.169234
  H     -2.009857    1.757258   -0.164088
  H      0.707258    1.947241   -0.668217
  H     -0.350055    1.038398   -1.793773

----------------------------
CARTESIAN COORDINATES (A.U.)
----------------------------
  NO LB      ZA    FRAG     MASS         X           Y           Z
   0 O     8.0000    0    15.999    4.073629   -2.187569    2.050724
   1 O     8.0000    0    15.999    2.909713    0.098396    1.287335
   2 C     6.0000    0    12.011    1.345535   -0.426263   -0.817261
   3 C     6.0000    0    12.011   -0.823947   -2.225159   -0.140226
   4 C     6.0000    0    12.011   -2.833331   -0.518383    0.867445
   5 C     6.0000    0    12.011   -2.202748    2.195094    0.425698
   6 C     6.0000    0    12.011    0.033127    2.068564   -1.428932
   7 H     1.0000    0     1.008    5.826214   -1.842345    1.653762
   8 H     1.0000    0     1.008    2.520900   -1.154981   -2.385562
   9 H     1.0000    0     1.008   -0.200339   -3.697330    1.193354
  10 H     1.0000    0     1.008   -1.447024   -3.217630   -1.881922
  11 H     1.0000    0     1.008   -4.483436   -1.169028    1.928618
  12 H     1.0000    0     1.008   -1.594666    3.114235    2.209533
  13 H     1.0000    0     1.008   -3.798078    3.320736   -0.310081
  14 H     1.0000    0     1.008    1.336524    3.679753   -1.262747
  15 H     1.0000    0     1.008   -0.661508    1.962288   -3.389740

--------------------------------
INTERNAL COORDINATES (ANGSTROEM)
--------------------------------
 O      0   0   0     0.000000000000     0.00000000     0.00000000
 O      1   0   0     1.416288325573     0.00000000     0.00000000
 C      2   1   0     1.415115864872   108.13606576     0.00000000
 C      3   2   1     1.533797630021   112.07019248    63.84709794
 C      4   3   2     1.493565389605   103.94333528    85.29739052
 C      5   4   3     1.492592682702   111.51076697     9.95359207
 C      3   2   1     1.526446348957   105.26726799   176.52638876
 H      1   2   3     0.968309355540   101.15728747   113.13174174
 H      3   2   1     1.106484262516   109.26079082   298.70355733
 H      4   3   2     1.101732530243   111.36330441   321.71624137
 H      4   3   2     1.110859431299   108.77105644   204.50044795
 H      5   4   3     1.093781463332   124.14554567   194.51666957
 H      6   5   4     1.109588761584   110.68926504   254.48566398
 H      6   5   4     1.104132849679   113.78405353   134.50863048
 H      7   3   2     1.100178433259   111.59706028    40.84253376
 H      7   3   2     1.102236843554   107.89169253   160.43411780

---------------------------
INTERNAL COORDINATES (A.U.)
---------------------------
 O      0   0   0     0.000000000000     0.00000000     0.00000000
 O      1   0   0     2.676397062003     0.00000000     0.00000000
 C      2   1   0     2.674181432376   108.13606576     0.00000000
 C      3   2   1     2.898457465597   112.07019248    63.84709794
 C      4   3   2     2.822429549456   103.94333528    85.29739052
 C      5   4   3     2.820591399802   111.51076697     9.95359207
 C      3   2   1     2.884565557653   105.26726799   176.52638876
 H      1   2   3     1.829839494885   101.15728747   113.13174174
 H      3   2   1     2.090952227649   109.26079082   298.70355733
 H      4   3   2     2.081972754991   111.36330441   321.71624137
 H      4   3   2     2.099220098439   108.77105644   204.50044795
 H      5   4   3     2.066947416058   124.14554567   194.51666957
 H      6   5   4     2.096818880671   110.68926504   254.48566398
 H      6   5   4     2.086508701360   113.78405353   134.50863048
 H      7   3   2     2.079035937306   111.59706028    40.84253376
 H      7   3   2     2.082925769036   107.89169253   160.43411780

---------------------
BASIS SET INFORMATION
---------------------
There are 3 groups of distinct atoms

 Group   1 Type O   : 7s4p1d contracted to 3s2p1d pattern {511/31/1}
 Group   2 Type C   : 7s4p1d contracted to 3s2p1d pattern {511/31/1}
 Group   3 Type H   : 4s1p contracted to 2s1p pattern {31/1}

Atom   0O    basis set group =>   1
Atom   1O    basis set group =>   1
Atom   2C    basis set group =>   2
Atom   3C    basis set group =>   2
Atom   4C    basis set group =>   2
Atom   5C    basis set group =>   2
Atom   6C    basis set group =>   2
Atom   7H    basis set group =>   3
Atom   8H    basis set group =>   3
Atom   9H    basis set group =>   3
Atom  10H    basis set group =>   3
Atom  11H    basis set group =>   3
Atom  12H    basis set group =>   3
Atom  13H    basis set group =>   3
Atom  14H    basis set group =>   3
Atom  15H    basis set group =>   3
---------------------------------
AUXILIARY/J BASIS SET INFORMATION
---------------------------------
There are 3 groups of distinct atoms

 Group   1 Type O   : 12s5p4d2f1g contracted to 6s4p3d1f1g pattern {711111/2111/211/2/1}
 Group   2 Type C   : 12s5p4d2f1g contracted to 6s4p3d1f1g pattern {711111/2111/211/2/1}
 Group   3 Type H   : 5s2p1d contracted to 3s1p1d pattern {311/2/1}

Atom   0O    basis set group =>   1
Atom   1O    basis set group =>   1
Atom   2C    basis set group =>   2
Atom   3C    basis set group =>   2
Atom   4C    basis set group =>   2
Atom   5C    basis set group =>   2
Atom   6C    basis set group =>   2
Atom   7H    basis set group =>   3
Atom   8H    basis set group =>   3
Atom   9H    basis set group =>   3
Atom  10H    basis set group =>   3
Atom  11H    basis set group =>   3
Atom  12H    basis set group =>   3
Atom  13H    basis set group =>   3
Atom  14H    basis set group =>   3
Atom  15H    basis set group =>   3


           ************************************************************
           *        Program running with 8 parallel MPI-processes     *
           *              working on a common directory               *
           ************************************************************
------------------------------------------------------------------------------
                           ORCA GTO INTEGRAL CALCULATION
                           -- RI-GTO INTEGRALS CHOSEN --
------------------------------------------------------------------------------
------------------------------------------------------------------------------
                   ___                                                        
                  /   \      - P O W E R E D   B Y -                         
                 /     \                                                     
                 |  |  |   _    _      __       _____    __    __             
                 |  |  |  | |  | |    /  \     |  _  \  |  |  /  |          
                  \  \/   | |  | |   /    \    | | | |  |  | /  /          
                 / \  \   | |__| |  /  /\  \   | |_| |  |  |/  /          
                |  |  |   |  __  | /  /__\  \  |    /   |      \           
                |  |  |   | |  | | |   __   |  |    \   |  |\   \          
                \     /   | |  | | |  |  |  |  | |\  \  |  | \   \       
                 \___/    |_|  |_| |__|  |__|  |_| \__\ |__|  \__/        
                                                                              
                      - O R C A' S   B I G   F R I E N D -                    
                                      &                                       
                       - I N T E G R A L  F E E D E R -                       
                                                                              
 v1 FN, 2020, v2 2021                                                         
------------------------------------------------------------------------------


Reading SHARK input file r0_C5H9O2_opt_orca.SHARKINP.tmp ... ok
----------------------
SHARK INTEGRAL PACKAGE
----------------------

Number of atoms                             ...     16
Number of basis functions                   ...    143
Number of shells                            ...     69
Maximum angular momentum                    ...      2
Integral batch strategy                     ... SHARK/LIBINT Hybrid
RI-J (if used) integral strategy            ... SPLIT-RIJ (Revised 2003 algorithm where possible)
Printlevel                                  ...      1
Contraction scheme used                     ... SEGMENTED contraction
Coulomb Range Separation                    ... NOT USED
Exchange Range Separation                   ... NOT USED
Finite Nucleus Model                        ... NOT USED
Auxiliary Coulomb fitting basis             ... AVAILABLE
   # of basis functions in Aux-J            ...    442
   # of shells in Aux-J                     ...    150
   Maximum angular momentum in Aux-J        ...      4
Auxiliary J/K fitting basis                 ... NOT available
Auxiliary Correlation fitting basis         ... NOT available
Auxiliary 'external' fitting basis          ... NOT available
Integral threshold                          ...     2.500000e-11
Primitive cut-off                           ...     2.500000e-12
Primitive pair pre-selection threshold      ...     2.500000e-12

Calculating pre-screening integrals         ... done (  0.0 sec) Dimension = 69
Organizing shell pair data                  ... done (  0.0 sec)
Shell pair information
Total number of shell pairs                 ...      2415
Shell pairs after pre-screening             ...      2348
Total number of primitive shell pairs       ...      8503
Primitive shell pairs kept                  ...      6302
          la=0 lb=0:    756 shell pairs
          la=1 lb=0:    873 shell pairs
          la=1 lb=1:    269 shell pairs
          la=2 lb=0:    265 shell pairs
          la=2 lb=1:    157 shell pairs
          la=2 lb=2:     28 shell pairs

Calculating one electron integrals          ... done (  0.0 sec)
Calculating RI/J V-Matrix + Cholesky decomp.... done (  0.0 sec)
Calculating Nuclear repulsion               ... done (  0.0 sec) ENN=    321.862871165085 Eh

SHARK setup successfully completed in   0.1 seconds

Maximum memory used throughout the entire GTOINT-calculation: 11.1 MB


           ************************************************************
           *        Program running with 8 parallel MPI-processes     *
           *              working on a common directory               *
           ************************************************************
-------------------------------------------------------------------------------
                                 ORCA SCF
-------------------------------------------------------------------------------

------------
SCF SETTINGS
------------
Hamiltonian:
 Density Functional     Method          .... DFT(GTOs)
 Exchange Functional    Exchange        .... PBE
   PBE kappa parameter   XKappa         ....  0.804000
   PBE mue parameter    XMuePBE         ....  0.219520
 Correlation Functional Correlation     .... PBE
   PBE beta parameter  CBetaPBE         ....  0.066725
 LDA part of GGA corr.  LDAOpt          .... PW91-LDA
 Gradients option       PostSCFGGA      .... off
 Hybrid DFT is turned on
   Fraction HF Exchange ScalHFX         ....  0.250000
   Scaling of DF-GGA-X  ScalDFX         ....  0.750000
   Scaling of DF-GGA-C  ScalDFC         ....  1.000000
   Scaling of DF-LDA-C  ScalLDAC        ....  1.000000
   Perturbative correction              ....  0.000000
   Density functional embedding theory  .... OFF
   NL short-range parameter             ....  6.900000
 RI-approximation to the Coulomb term is turned on
   Number of AuxJ basis functions       .... 442
   RIJ-COSX (HFX calculated with COS-X)).... on


General Settings:
 Integral files         IntName         .... r0_C5H9O2_opt_orca
 Hartree-Fock type      HFTyp           .... UHF
 Total Charge           Charge          ....    0
 Multiplicity           Mult            ....    2
 Number of Electrons    NEL             ....   55
 Basis Dimension        Dim             ....  143
 Nuclear Repulsion      ENuc            ....    321.8628711651 Eh

Convergence Acceleration:
 DIIS                   CNVDIIS         .... on
   Start iteration      DIISMaxIt       ....    12
   Startup error        DIISStart       ....  0.200000
   # of expansion vecs  DIISMaxEq       ....     5
   Bias factor          DIISBfac        ....   1.050
   Max. coefficient     DIISMaxC        ....  10.000
 Trust-Rad. Augm. Hess. CNVTRAH         .... auto
   Auto Start mean grad. ratio tolernc. ....  1.125000
   Auto Start start iteration           ....    20
   Auto Start num. interpolation iter.  ....    10
   Max. Number of Micro iterations      ....    16
   Max. Number of Macro iterations      .... Maxiter - #DIIS iter
   Number of Davidson start vectors     ....     2
   Converg. threshold I  (grad. norm)   ....   1.000e-05
   Converg. threshold II (energy diff.) ....   1.000e-08
   Grad. Scal. Fac. for Micro threshold ....   0.100
   Minimum threshold for Micro iter.    ....   0.010
   NR start threshold (gradient norm)   ....   0.001
   Initial trust radius                 ....   0.400
   Minimum AH scaling param. (alpha)    ....   1.000
   Maximum AH scaling param. (alpha)    .... 1000.000
   Orbital update algorithm             .... Taylor
   White noise on init. David. guess    .... on
   Maximum white noise                  ....   0.010
   Quad. conv. algorithm                .... NR
 SOSCF                  CNVSOSCF        .... off
 Level Shifting         CNVShift        .... on
   Level shift para.    LevelShift      ....    0.2500
   Turn off err/grad.   ShiftErr        ....    0.0010
 Zerner damping         CNVZerner       .... off
 Static damping         CNVDamp         .... on
   Fraction old density DampFac         ....    0.7000
   Max. Damping (<1)    DampMax         ....    0.9800
   Min. Damping (>=0)   DampMin         ....    0.0000
   Turn off err/grad.   DampErr         ....    0.1000
 Fernandez-Rico         CNVRico         .... off

SCF Procedure:
 Maximum # iterations   MaxIter         ....   250
 SCF integral mode      SCFMode         .... Direct
   Integral package                     .... SHARK and LIBINT hybrid scheme
 Reset frequency        DirectResetFreq ....    20
 Integral Threshold     Thresh          ....  2.500e-11 Eh
 Primitive CutOff       TCut            ....  2.500e-12 Eh

Convergence Tolerance:
 Convergence Check Mode ConvCheckMode   .... Total+1el-Energy
 Convergence forced     ConvForced      .... 0
 Energy Change          TolE            ....  1.000e-08 Eh
 1-El. energy change                    ....  1.000e-05 Eh
 DIIS Error             TolErr          ....  5.000e-07


Diagonalization of the overlap matrix:
Smallest eigenvalue                        ... 1.009e-03
Time for diagonalization                   ...    0.003 sec
Threshold for overlap eigenvalues          ... 1.000e-08
Number of eigenvalues below threshold      ... 0
Time for construction of square roots      ...    0.001 sec
Total time needed                          ...    0.005 sec

Time for model grid setup =    0.045 sec

------------------------------
INITIAL GUESS: MODEL POTENTIAL
------------------------------
Loading Hartree-Fock densities                     ... done
Calculating cut-offs                               ... done
Initializing the effective Hamiltonian             ... done
Setting up the integral package (SHARK)            ... done
Starting the Coulomb interaction                   ... done (   0.0 sec)
Reading the grid                                   ... done
Mapping shells                                     ... done
Starting the XC term evaluation                    ... done (   0.0 sec)
  promolecular density results
     # of electrons  =     54.995480397
     EX              =    -44.490264849
     EC              =     -1.827660914
     EX+EC           =    -46.317925763
Transforming the Hamiltonian                       ... done (   0.0 sec)
Diagonalizing the Hamiltonian                      ... done (   0.0 sec)
Back transforming the eigenvectors                 ... done (   0.0 sec)
Now organizing SCF variables                       ... done
                      ------------------
                      INITIAL GUESS DONE (   0.1 sec)
                      ------------------
-------------------
DFT GRID GENERATION
-------------------

General Integration Accuracy     IntAcc      ... 4.388
Radial Grid Type                 RadialGrid  ... OptM3 with GC (2021)
Angular Grid (max. ang.)         AngularGrid ... 4 (Lebedev-302)
Angular grid pruning method      GridPruning ... 4 (adaptive)
Weight generation scheme         WeightScheme... Becke
Basis function cutoff            BFCut       ... 1.0000e-11
Integration weight cutoff        WCut        ... 1.0000e-14
Angular grids for H and He will be reduced by one unit
Partially contracted basis set               ... off
Rotationally invariant grid construction     ... off

Total number of grid points                  ...    71133
Total number of batches                      ...     1120
Average number of points per batch           ...       63
Average number of grid points per atom       ...     4446
Time for grid setup =    0.265 sec

--------------------
COSX GRID GENERATION
--------------------

GRIDX 1
-------
General Integration Accuracy     IntAcc      ... 3.816
Radial Grid Type                 RadialGrid  ... OptM3 with GC (2021)
Angular Grid (max. ang.)         AngularGrid ... 1 (Lebedev-50)
Angular grid pruning method      GridPruning ... 4 (adaptive)
Weight generation scheme         WeightScheme... Becke
Basis function cutoff            BFCut       ... 1.0000e-11
Integration weight cutoff        WCut        ... 1.0000e-14
Angular grids for H and He will be reduced by one unit
Partially contracted basis set               ... on
Rotationally invariant grid construction     ... off

Total number of grid points                  ...     9110
Total number of batches                      ...      153
Average number of points per batch           ...       59
Average number of grid points per atom       ...      569
UseSFitting                                  ... on

GRIDX 2
-------
General Integration Accuracy     IntAcc      ... 4.020
Radial Grid Type                 RadialGrid  ... OptM3 with GC (2021)
Angular Grid (max. ang.)         AngularGrid ... 2 (Lebedev-110)
Angular grid pruning method      GridPruning ... 4 (adaptive)
Weight generation scheme         WeightScheme... Becke
Basis function cutoff            BFCut       ... 1.0000e-11
Integration weight cutoff        WCut        ... 1.0000e-14
Angular grids for H and He will be reduced by one unit
Partially contracted basis set               ... on
Rotationally invariant grid construction     ... off

Total number of grid points                  ...    19464
Total number of batches                      ...      313
Average number of points per batch           ...       62
Average number of grid points per atom       ...     1216
UseSFitting                                  ... on

GRIDX 3
-------
General Integration Accuracy     IntAcc      ... 4.338
Radial Grid Type                 RadialGrid  ... OptM3 with GC (2021)
Angular Grid (max. ang.)         AngularGrid ... 3 (Lebedev-194)
Angular grid pruning method      GridPruning ... 4 (adaptive)
Weight generation scheme         WeightScheme... Becke
Basis function cutoff            BFCut       ... 1.0000e-11
Integration weight cutoff        WCut        ... 1.0000e-14
Angular grids for H and He will be reduced by one unit
Partially contracted basis set               ... on
Rotationally invariant grid construction     ... off

Total number of grid points                  ...    42627
Total number of batches                      ...      673
Average number of points per batch           ...       63
Average number of grid points per atom       ...     2664
UseSFitting                                  ... on

Time for X-Grid setup             =    0.199 sec

--------------
SCF ITERATIONS
--------------
ITER       Energy         Delta-E        Max-DP      RMS-DP      [F,P]     Damp
               ***  Starting incremental Fock matrix formation  ***
  0   -345.4542426770   0.000000000000 0.03215230  0.00105702  0.0763473 0.7000
  1   -345.5167213870  -0.062478710010 0.02053016  0.00074728  0.0400188 0.7000
                               ***Turning on DIIS***
  2   -345.5441954986  -0.027474111532 0.03203940  0.00132297  0.0168975 0.0000
  3   -345.5856044222  -0.041408923604 0.01465631  0.00054106  0.0181868 0.0000
  4   -345.5954441561  -0.009839733941 0.00345207  0.00012505  0.0027719 0.0000
  5   -345.5957073220  -0.000263165854 0.00157907  0.00005710  0.0010120 0.0000
  6   -345.5957392135  -0.000031891549 0.00076953  0.00002724  0.0013129 0.0000
  7   -345.5957553002  -0.000016086720 0.00067870  0.00002441  0.0002159 0.0000
               *** Restarting incremental Fock matrix formation ***
                                   *** Resetting DIIS ***
  8   -345.5957513487   0.000003951499 0.00013679  0.00000611  0.0000911 0.0000
  9   -345.5957513590  -0.000000010266 0.00009061  0.00000292  0.0001356 0.0000
 10   -345.5957515550  -0.000000195960 0.00003227  0.00000092  0.0000363 0.0000
 11   -345.5957515640  -0.000000009066 0.00002016  0.00000052  0.0000323 0.0000
 12   -345.5957515696  -0.000000005572 0.00000678  0.00000019  0.0000068 0.0000
 13   -345.5957515685   0.000000001074 0.00000247  0.00000007  0.0000019 0.0000
                            ***DIIS convergence achieved***

               *****************************************************
               *                     SUCCESS                       *
               *           SCF CONVERGED AFTER  14 CYCLES          *
               *****************************************************

Old exchange energy                            =    -11.367490789 Eh
New exchange energy                            =    -11.367474992 Eh
Exchange energy change after final integration =      0.000015797 Eh
Total energy after final integration           =   -345.595735774 Eh
Final COS-X integration done in                =     0.782 sec

----------------
TOTAL SCF ENERGY
----------------

Total Energy       :         -345.59573577 Eh           -9404.13807 eV

Components:
Nuclear Repulsion  :          321.86287117 Eh            8758.33399 eV
Electronic Energy  :         -667.45860694 Eh          -18162.47206 eV
One Electron Energy:        -1108.25350590 Eh          -30157.11105 eV
Two Electron Energy:          440.79489896 Eh           11994.63900 eV
Max COSX asymmetry :            0.00000080 Eh               0.00002 eV

Virial components:
Potential Energy   :         -688.18884169 Eh          -18726.57042 eV
Kinetic Energy     :          342.59310592 Eh            9322.43236 eV
Virial Ratio       :            2.00876442


DFT components:
N(Alpha)           :       28.000015148329 electrons
N(Beta)            :       27.000011493212 electrons
N(Total)           :       55.000026641541 electrons
E(X)               :      -33.999000760372 Eh       
E(C)               :       -1.836302332629 Eh       
E(XC)              :      -35.835303093002 Eh       
DFET-embed. en.    :        0.000000000000 Eh       

---------------
SCF CONVERGENCE
---------------

  Last Energy change         ...   -2.7716e-09  Tolerance :   1.0000e-08
  Last MAX-Density change    ...    0.0000e+00  Tolerance :   1.0000e-07
  Last RMS-Density change    ...    0.0000e+00  Tolerance :   5.0000e-09
  Last DIIS Error            ...    6.0890e-07  Tolerance :   5.0000e-07

             **** THE GBW FILE WAS UPDATED (r0_C5H9O2_opt_orca.gbw) ****
             **** DENSITY r0_C5H9O2_opt_orca.scfp WAS UPDATED ****
             **** ENERGY FILE WAS UPDATED (r0_C5H9O2_opt_orca.en.tmp) ****
----------------------
UHF SPIN CONTAMINATION
----------------------

Warning: in a DFT calculation there is little theoretical justification to 
         calculate <S**2> as in Hartree-Fock theory. We will do it anyways
         but you should keep in mind that the values have only limited relevance

Expectation value of <S**2>     :     0.755103
Ideal value S*(S+1) for S=0.5   :     0.750000
Deviation                       :     0.005103

             **** THE GBW FILE WAS UPDATED (r0_C5H9O2_opt_orca.gbw) ****
             **** DENSITY r0_C5H9O2_opt_orca.scfp WAS UPDATED ****
----------------
ORBITAL ENERGIES
----------------
                 SPIN UP ORBITALS
  NO   OCC          E(Eh)            E(eV) 
   0   1.0000     -19.258197      -524.0422 
   1   1.0000     -19.255332      -523.9642 
   2   1.0000     -10.280997      -279.7602 
   3   1.0000     -10.234325      -278.4902 
   4   1.0000     -10.231206      -278.4053 
   5   1.0000     -10.230188      -278.3776 
   6   1.0000     -10.227043      -278.2920 
   7   1.0000      -1.147990       -31.2384 
   8   1.0000      -0.931141       -25.3376 
   9   1.0000      -0.840873       -22.8813 
  10   1.0000      -0.730028       -19.8651 
  11   1.0000      -0.709045       -19.2941 
  12   1.0000      -0.587224       -15.9792 
  13   1.0000      -0.573701       -15.6112 
  14   1.0000      -0.533279       -14.5113 
  15   1.0000      -0.518629       -14.1126 
  16   1.0000      -0.502623       -13.6771 
  17   1.0000      -0.453665       -12.3449 
  18   1.0000      -0.435814       -11.8591 
  19   1.0000      -0.412845       -11.2341 
  20   1.0000      -0.380297       -10.3484 
  21   1.0000      -0.371794       -10.1170 
  22   1.0000      -0.363343        -9.8871 
  23   1.0000      -0.361068        -9.8252 
  24   1.0000      -0.349605        -9.5132 
  25   1.0000      -0.309186        -8.4134 
  26   1.0000      -0.269743        -7.3401 
  27   1.0000      -0.194322        -5.2878 
  28   0.0000       0.053378         1.4525 
  29   0.0000       0.064675         1.7599 
  30   0.0000       0.098837         2.6895 
  31   0.0000       0.108445         2.9509 
  32   0.0000       0.123573         3.3626 
  33   0.0000       0.128286         3.4908 
  34   0.0000       0.139044         3.7836 
  35   0.0000       0.147221         4.0061 
  36   0.0000       0.162314         4.4168 
  37   0.0000       0.181596         4.9415 
  38   0.0000       0.189044         5.1442 
  39   0.0000       0.196390         5.3440 
  40   0.0000       0.228297         6.2123 
  41   0.0000       0.261891         7.1264 
  42   0.0000       0.298559         8.1242 
  43   0.0000       0.336406         9.1541 
  44   0.0000       0.453498        12.3403 
  45   0.0000       0.463199        12.6043 
  46   0.0000       0.479229        13.0405 
  47   0.0000       0.497756        13.5446 
  48   0.0000       0.508685        13.8420 
  49   0.0000       0.543697        14.7948 
  50   0.0000       0.560279        15.2460 
  51   0.0000       0.564679        15.3657 
  52   0.0000       0.588736        16.0203 
  53   0.0000       0.619618        16.8607 
  54   0.0000       0.621579        16.9140 
  55   0.0000       0.630013        17.1435 
  56   0.0000       0.650717        17.7069 
  57   0.0000       0.661701        18.0058 
  58   0.0000       0.672615        18.3028 
  59   0.0000       0.678328        18.4583 
  60   0.0000       0.692403        18.8413 
  61   0.0000       0.694753        18.9052 
  62   0.0000       0.703374        19.1398 
  63   0.0000       0.717210        19.5163 
  64   0.0000       0.730680        19.8828 
  65   0.0000       0.742426        20.2024 
  66   0.0000       0.763364        20.7722 
  67   0.0000       0.776449        21.1283 
  68   0.0000       0.823986        22.4218 
  69   0.0000       0.913275        24.8515 
  70   0.0000       0.936020        25.4704 
  71   0.0000       0.976187        26.5634 
  72   0.0000       1.002553        27.2808 
  73   0.0000       1.039436        28.2845 
  74   0.0000       1.066104        29.0102 
  75   0.0000       1.110893        30.2289 
  76   0.0000       1.122413        30.5424 
  77   0.0000       1.156501        31.4700 
  78   0.0000       1.207228        32.8503 
  79   0.0000       1.229652        33.4605 
  80   0.0000       1.286168        34.9984 
  81   0.0000       1.354580        36.8600 
  82   0.0000       1.415996        38.5312 
  83   0.0000       1.436755        39.0961 
  84   0.0000       1.463605        39.8267 
  85   0.0000       1.498115        40.7658 
  86   0.0000       1.549548        42.1653 
  87   0.0000       1.583774        43.0967 
  88   0.0000       1.614877        43.9430 
  89   0.0000       1.635978        44.5172 
  90   0.0000       1.685138        45.8549 
  91   0.0000       1.696593        46.1666 
  92   0.0000       1.716265        46.7020 
  93   0.0000       1.744807        47.4786 
  94   0.0000       1.758208        47.8433 
  95   0.0000       1.796782        48.8929 
  96   0.0000       1.802377        49.0452 
  97   0.0000       1.823772        49.6274 
  98   0.0000       1.833153        49.8826 
  99   0.0000       1.871124        50.9159 
 100   0.0000       1.873238        50.9734 
 101   0.0000       1.889972        51.4287 
 102   0.0000       1.898843        51.6701 
 103   0.0000       1.926234        52.4155 
 104   0.0000       1.955860        53.2216 
 105   0.0000       1.979734        53.8713 
 106   0.0000       1.997887        54.3653 
 107   0.0000       2.027062        55.1592 
 108   0.0000       2.105486        57.2932 
 109   0.0000       2.120493        57.7016 
 110   0.0000       2.124141        57.8008 
 111   0.0000       2.153975        58.6126 
 112   0.0000       2.213705        60.2380 
 113   0.0000       2.241998        61.0079 
 114   0.0000       2.299600        62.5753 
 115   0.0000       2.304527        62.7094 
 116   0.0000       2.363389        64.3111 
 117   0.0000       2.389239        65.0145 
 118   0.0000       2.448750        66.6339 
 119   0.0000       2.476749        67.3958 
 120   0.0000       2.479907        67.4817 
 121   0.0000       2.519725        68.5652 
 122   0.0000       2.543405        69.2096 
 123   0.0000       2.603410        70.8424 
 124   0.0000       2.619352        71.2762 
 125   0.0000       2.632596        71.6366 
 126   0.0000       2.666193        72.5508 
 127   0.0000       2.805563        76.3432 
 128   0.0000       2.846114        77.4467 
 129   0.0000       2.852010        77.6071 
 130   0.0000       2.873422        78.1898 
 131   0.0000       2.931844        79.7795 
 132   0.0000       2.962190        80.6053 
 133   0.0000       2.964438        80.6665 
 134   0.0000       2.994550        81.4858 
 135   0.0000       3.053478        83.0894 
 136   0.0000       3.086795        83.9960 
 137   0.0000       3.111384        84.6651 
 138   0.0000       3.164138        86.1006 
 139   0.0000       3.235410        88.0400 
 140   0.0000       3.383196        92.0614 
 141   0.0000       3.618517        98.4649 
 142   0.0000       3.908573       106.3577 

                 SPIN DOWN ORBITALS
  NO   OCC          E(Eh)            E(eV) 
   0   1.0000     -19.258225      -524.0430 
   1   1.0000     -19.255294      -523.9632 
   2   1.0000     -10.280871      -279.7567 
   3   1.0000     -10.234231      -278.4876 
   4   1.0000     -10.231410      -278.4108 
   5   1.0000     -10.228257      -278.3250 
   6   1.0000     -10.215474      -277.9772 
   7   1.0000      -1.147962       -31.2376 
   8   1.0000      -0.930441       -25.3186 
   9   1.0000      -0.831950       -22.6385 
  10   1.0000      -0.726702       -19.7746 
  11   1.0000      -0.697131       -18.9699 
  12   1.0000      -0.585300       -15.9268 
  13   1.0000      -0.560283       -15.2461 
  14   1.0000      -0.527297       -14.3485 
  15   1.0000      -0.515319       -14.0225 
  16   1.0000      -0.498927       -13.5765 
  17   1.0000      -0.447088       -12.1659 
  18   1.0000      -0.432309       -11.7637 
  19   1.0000      -0.402905       -10.9636 
  20   1.0000      -0.375785       -10.2256 
  21   1.0000      -0.364973        -9.9314 
  22   1.0000      -0.358290        -9.7496 
  23   1.0000      -0.356488        -9.7005 
  24   1.0000      -0.348198        -9.4750 
  25   1.0000      -0.308879        -8.4050 
  26   1.0000      -0.269383        -7.3303 
  27   0.0000      -0.021444        -0.5835 
  28   0.0000       0.054012         1.4697 
  29   0.0000       0.066107         1.7989 
  30   0.0000       0.101392         2.7590 
  31   0.0000       0.112110         3.0507 
  32   0.0000       0.125831         3.4240 
  33   0.0000       0.132443         3.6039 
  34   0.0000       0.147041         4.0012 
  35   0.0000       0.149153         4.0587 
  36   0.0000       0.165416         4.5012 
  37   0.0000       0.184425         5.0185 
  38   0.0000       0.192538         5.2392 
  39   0.0000       0.200531         5.4567 
  40   0.0000       0.229861         6.2548 
  41   0.0000       0.263331         7.1656 
  42   0.0000       0.309722         8.4280 
  43   0.0000       0.340906         9.2765 
  44   0.0000       0.464428        12.6377 
  45   0.0000       0.474216        12.9041 
  46   0.0000       0.494863        13.4659 
  47   0.0000       0.503986        13.7141 
  48   0.0000       0.517920        14.0933 
  49   0.0000       0.547186        14.8897 
  50   0.0000       0.566866        15.4252 
  51   0.0000       0.594409        16.1747 
  52   0.0000       0.611802        16.6480 
  53   0.0000       0.623170        16.9573 
  54   0.0000       0.632057        17.1992 
  55   0.0000       0.635672        17.2975 
  56   0.0000       0.656160        17.8550 
  57   0.0000       0.670412        18.2428 
  58   0.0000       0.679432        18.4883 
  59   0.0000       0.683745        18.6056 
  60   0.0000       0.695401        18.9228 
  61   0.0000       0.696157        18.9434 
  62   0.0000       0.706854        19.2345 
  63   0.0000       0.720860        19.6156 
  64   0.0000       0.735488        20.0136 
  65   0.0000       0.747408        20.3380 
  66   0.0000       0.768379        20.9087 
  67   0.0000       0.780258        21.2319 
  68   0.0000       0.829029        22.5590 
  69   0.0000       0.914159        24.8755 
  70   0.0000       0.940105        25.5816 
  71   0.0000       0.980888        26.6913 
  72   0.0000       1.004953        27.3462 
  73   0.0000       1.042544        28.3691 
  74   0.0000       1.068917        29.0867 
  75   0.0000       1.113025        30.2869 
  76   0.0000       1.125714        30.6322 
  77   0.0000       1.161993        31.6194 
  78   0.0000       1.210515        32.9398 
  79   0.0000       1.235937        33.6316 
  80   0.0000       1.286682        35.0124 
  81   0.0000       1.358134        36.9567 
  82   0.0000       1.420749        38.6606 
  83   0.0000       1.438609        39.1465 
  84   0.0000       1.470536        40.0153 
  85   0.0000       1.505041        40.9543 
  86   0.0000       1.550423        42.1891 
  87   0.0000       1.588718        43.2312 
  88   0.0000       1.633069        44.4381 
  89   0.0000       1.646481        44.8030 
  90   0.0000       1.688343        45.9421 
  91   0.0000       1.697719        46.1973 
  92   0.0000       1.720003        46.8037 
  93   0.0000       1.746383        47.5215 
  94   0.0000       1.764717        48.0204 
  95   0.0000       1.799883        48.9773 
  96   0.0000       1.807643        49.1885 
  97   0.0000       1.830986        49.8237 
  98   0.0000       1.838713        50.0339 
  99   0.0000       1.875120        51.0246 
 100   0.0000       1.875518        51.0354 
 101   0.0000       1.898058        51.6488 
 102   0.0000       1.917806        52.1862 
 103   0.0000       1.934256        52.6338 
 104   0.0000       1.964540        53.4578 
 105   0.0000       1.996398        54.3248 
 106   0.0000       2.001986        54.4768 
 107   0.0000       2.036347        55.4118 
 108   0.0000       2.109367        57.3988 
 109   0.0000       2.126598        57.8677 
 110   0.0000       2.135972        58.1228 
 111   0.0000       2.158477        58.7351 
 112   0.0000       2.215703        60.2923 
 113   0.0000       2.248072        61.1732 
 114   0.0000       2.314412        62.9784 
 115   0.0000       2.320643        63.1479 
 116   0.0000       2.371963        64.5444 
 117   0.0000       2.399588        65.2961 
 118   0.0000       2.453227        66.7557 
 119   0.0000       2.480158        67.4885 
 120   0.0000       2.482669        67.5568 
 121   0.0000       2.524815        68.7037 
 122   0.0000       2.551213        69.4220 
 123   0.0000       2.607838        70.9629 
 124   0.0000       2.621827        71.3435 
 125   0.0000       2.636306        71.7375 
 126   0.0000       2.671432        72.6933 
 127   0.0000       2.808769        76.4305 
 128   0.0000       2.852510        77.6207 
 129   0.0000       2.853654        77.6519 
 130   0.0000       2.875925        78.2579 
 131   0.0000       2.934403        79.8492 
 132   0.0000       2.964269        80.6619 
 133   0.0000       2.965405        80.6928 
 134   0.0000       2.996671        81.5436 
 135   0.0000       3.057553        83.2003 
 136   0.0000       3.090827        84.1057 
 137   0.0000       3.114906        84.7609 
 138   0.0000       3.165115        86.1272 
 139   0.0000       3.235595        88.0450 
 140   0.0000       3.383416        92.0674 
 141   0.0000       3.618589        98.4668 
 142   0.0000       3.908618       106.3589 

                    ********************************
                    * MULLIKEN POPULATION ANALYSIS *
                    ********************************

--------------------------------------------
MULLIKEN ATOMIC CHARGES AND SPIN POPULATIONS
--------------------------------------------
   0 O :   -0.155537    0.000251
   1 O :   -0.271280   -0.000710
   2 C :    0.037424    0.006240
   3 C :    0.066251   -0.107411
   4 C :   -0.192757    1.076247
   5 C :    0.011563   -0.107616
   6 C :   -0.054595    0.008298
   7 H :    0.190629    0.000480
   8 H :    0.017299   -0.000120
   9 H :    0.065122    0.029759
  10 H :    0.045211    0.057635
  11 H :    0.034408   -0.051953
  12 H :    0.059996    0.058925
  13 H :    0.045718    0.031348
  14 H :    0.049375   -0.000478
  15 H :    0.051174   -0.000896
Sum of atomic charges         :   -0.0000000
Sum of atomic spin populations:    1.0000000

-----------------------------------------------------
MULLIKEN REDUCED ORBITAL CHARGES AND SPIN POPULATIONS
-----------------------------------------------------
CHARGE
  0 O s       :     3.773508  s :     3.773508
      pz      :     1.859062  p :     4.362438
      px      :     1.214191
      py      :     1.289185
      dz2     :     0.002544  d :     0.019591
      dxz     :     0.002067
      dyz     :     0.003785
      dx2y2   :     0.006550
      dxy     :     0.004645
  1 O s       :     3.847138  s :     3.847138
      pz      :     1.536245  p :     4.400377
      px      :     1.600164
      py      :     1.263968
      dz2     :     0.004825  d :     0.023766
      dxz     :     0.003716
      dyz     :     0.004694
      dx2y2   :     0.005013
      dxy     :     0.005517
  2 C s       :     3.124289  s :     3.124289
      pz      :     0.839622  p :     2.768679
      px      :     0.924283
      py      :     1.004774
      dz2     :     0.016137  d :     0.069609
      dxz     :     0.020044
      dyz     :     0.009399
      dx2y2   :     0.010443
      dxy     :     0.013586
  3 C s       :     2.971909  s :     2.971909
      pz      :     1.009895  p :     2.926783
      px      :     0.936239
      py      :     0.980649
      dz2     :     0.005164  d :     0.035057
      dxz     :     0.005686
      dyz     :     0.009100
      dx2y2   :     0.005633
      dxy     :     0.009474
  4 C s       :     3.268314  s :     3.268314
      pz      :     0.995438  p :     2.893989
      px      :     0.961459
      py      :     0.937093
      dz2     :     0.002835  d :     0.030453
      dxz     :     0.004526
      dyz     :     0.005924
      dx2y2   :     0.008393
      dxy     :     0.008775
  5 C s       :     3.008317  s :     3.008317
      pz      :     0.999975  p :     2.943420
      px      :     0.975504
      py      :     0.967941
      dz2     :     0.006628  d :     0.036700
      dxz     :     0.006714
      dyz     :     0.007974
      dx2y2   :     0.007057
      dxy     :     0.008328
  6 C s       :     3.060332  s :     3.060332
      pz      :     1.005812  p :     2.960288
      px      :     0.984471
      py      :     0.970005
      dz2     :     0.008971  d :     0.033975
      dxz     :     0.006682
      dyz     :     0.003164
      dx2y2   :     0.005422
      dxy     :     0.009736
  7 H s       :     0.742549  s :     0.742549
      pz      :     0.020169  p :     0.066822
      px      :     0.034266
      py      :     0.012387
  8 H s       :     0.962715  s :     0.962715
      pz      :     0.008919  p :     0.019986
      px      :     0.006089
      py      :     0.004978
  9 H s       :     0.911441  s :     0.911441
      pz      :     0.009142  p :     0.023437
      px      :     0.005196
      py      :     0.009098
 10 H s       :     0.931720  s :     0.931720
      pz      :     0.011271  p :     0.023069
      px      :     0.005155
      py      :     0.006643
 11 H s       :     0.941848  s :     0.941848
      pz      :     0.008258  p :     0.023744
      px      :     0.011275
      py      :     0.004211
 12 H s       :     0.916988  s :     0.916988
      pz      :     0.011533  p :     0.023016
      px      :     0.005266
      py      :     0.006217
 13 H s       :     0.931611  s :     0.931611
      pz      :     0.005651  p :     0.022671
      px      :     0.010062
      py      :     0.006958
 14 H s       :     0.928043  s :     0.928043
      pz      :     0.004313  p :     0.022583
      px      :     0.008162
      py      :     0.010108
 15 H s       :     0.926119  s :     0.926119
      pz      :     0.013011  p :     0.022707
      px      :     0.005356
      py      :     0.004340

SPIN
  0 O s       :     0.000020  s :     0.000020
      pz      :     0.000107  p :     0.000225
      px      :     0.000132
      py      :    -0.000014
      dz2     :     0.000002  d :     0.000006
      dxz     :    -0.000000
      dyz     :     0.000002
      dx2y2   :     0.000002
      dxy     :     0.000001
  1 O s       :     0.000054  s :     0.000054
      pz      :     0.000147  p :    -0.000772
      px      :    -0.000569
      py      :    -0.000349
      dz2     :     0.000000  d :     0.000008
      dxz     :     0.000001
      dyz     :     0.000002
      dx2y2   :    -0.000003
      dxy     :     0.000008
  2 C s       :     0.001080  s :     0.001080
      pz      :     0.000244  p :     0.005266
      px      :     0.001437
      py      :     0.003584
      dz2     :    -0.000000  d :    -0.000105
      dxz     :    -0.000129
      dyz     :     0.000130
      dx2y2   :    -0.000100
      dxy     :    -0.000006
  3 C s       :    -0.033739  s :    -0.033739
      pz      :    -0.026302  p :    -0.081275
      px      :    -0.032095
      py      :    -0.022878
      dz2     :     0.002110  d :     0.007603
      dxz     :     0.000552
      dyz     :     0.003870
      dx2y2   :     0.000574
      dxy     :     0.000496
  4 C s       :     0.139372  s :     0.139372
      pz      :     0.658283  p :     0.939459
      px      :     0.245968
      py      :     0.035208
      dz2     :    -0.000935  d :    -0.002584
      dxz     :    -0.001624
      dyz     :     0.000091
      dx2y2   :    -0.000087
      dxy     :    -0.000028
  5 C s       :    -0.033890  s :    -0.033890
      pz      :    -0.021516  p :    -0.081251
      px      :    -0.014249
      py      :    -0.045487
      dz2     :     0.000020  d :     0.007525
      dxz     :     0.000297
      dyz     :     0.005097
      dx2y2   :    -0.000006
      dxy     :     0.002117
  6 C s       :     0.002463  s :     0.002463
      pz      :     0.001477  p :     0.005994
      px      :     0.002600
      py      :     0.001917
      dz2     :    -0.000127  d :    -0.000159
      dxz     :    -0.000003
      dyz     :    -0.000001
      dx2y2   :     0.000015
      dxy     :    -0.000042
  7 H s       :     0.000484  s :     0.000484
      pz      :     0.000007  p :    -0.000005
      px      :    -0.000010
      py      :    -0.000001
  8 H s       :    -0.000105  s :    -0.000105
      pz      :    -0.000010  p :    -0.000015
      px      :     0.000008
      py      :    -0.000013
  9 H s       :     0.030030  s :     0.030030
      pz      :    -0.000072  p :    -0.000271
      px      :     0.000042
      py      :    -0.000241
 10 H s       :     0.057983  s :     0.057983
      pz      :    -0.000315  p :    -0.000348
      px      :     0.000217
      py      :    -0.000249
 11 H s       :    -0.057657  s :    -0.057657
      pz      :     0.003979  p :     0.005705
      px      :     0.001766
      py      :    -0.000041
 12 H s       :     0.059238  s :     0.059238
      pz      :    -0.000005  p :    -0.000313
      px      :     0.000013
      py      :    -0.000321
 13 H s       :     0.031627  s :     0.031627
      pz      :    -0.000001  p :    -0.000278
      px      :     0.000022
      py      :    -0.000299
 14 H s       :    -0.000466  s :    -0.000466
      pz      :    -0.000005  p :    -0.000011
      px      :    -0.000006
      py      :    -0.000000
 15 H s       :    -0.000892  s :    -0.000892
      pz      :     0.000010  p :    -0.000004
      px      :    -0.000011
      py      :    -0.000003


                     *******************************
                     * LOEWDIN POPULATION ANALYSIS *
                     *******************************

-------------------------------------------
LOEWDIN ATOMIC CHARGES AND SPIN POPULATIONS
-------------------------------------------
   0 O :   -0.057887    0.000737
   1 O :   -0.096964   -0.000594
   2 C :    0.038723    0.004436
   3 C :   -0.067608   -0.016163
   4 C :   -0.027131    0.876324
   5 C :   -0.057308   -0.016688
   6 C :   -0.045428    0.004268
   7 H :    0.074907    0.000387
   8 H :    0.005671    0.000066
   9 H :    0.040683    0.025472
  10 H :    0.036849    0.048304
  11 H :    0.015007   -0.001561
  12 H :    0.039782    0.049295
  13 H :    0.032241    0.026566
  14 H :    0.032238   -0.000267
  15 H :    0.036224   -0.000580

----------------------------------------------------
LOEWDIN REDUCED ORBITAL CHARGES AND SPIN POPULATIONS
----------------------------------------------------
CHARGE
  0 O s       :     3.540897  s :     3.540897
      pz      :     1.836072  p :     4.482005
      px      :     1.287212
      py      :     1.358721
      dz2     :     0.004759  d :     0.034985
      dxz     :     0.003100
      dyz     :     0.005580
      dx2y2   :     0.013135
      dxy     :     0.008412
  1 O s       :     3.561417  s :     3.561417
      pz      :     1.574614  p :     4.494546
      px      :     1.601045
      py      :     1.318887
      dz2     :     0.008035  d :     0.041000
      dxz     :     0.007602
      dyz     :     0.008192
      dx2y2   :     0.008274
      dxy     :     0.008898
  2 C s       :     2.865986  s :     2.865986
      pz      :     0.909647  p :     2.936286
      px      :     0.978823
      py      :     1.047817
      dz2     :     0.036668  d :     0.159006
      dxz     :     0.045997
      dyz     :     0.020396
      dx2y2   :     0.020799
      dxy     :     0.035146
  3 C s       :     2.847356  s :     2.847356
      pz      :     1.060749  p :     3.128548
      px      :     1.029314
      py      :     1.038485
      dz2     :     0.012989  d :     0.091704
      dxz     :     0.013689
      dyz     :     0.025276
      dx2y2   :     0.012036
      dxy     :     0.027714
  4 C s       :     2.913403  s :     2.913403
      pz      :     0.997389  p :     3.040882
      px      :     1.022465
      py      :     1.021029
      dz2     :     0.005560  d :     0.072846
      dxz     :     0.009860
      dyz     :     0.012839
      dx2y2   :     0.021655
      dxy     :     0.022932
  5 C s       :     2.842144  s :     2.842144
      pz      :     1.046576  p :     3.121790
      px      :     1.033300
      py      :     1.041913
      dz2     :     0.015245  d :     0.093374
      dxz     :     0.018298
      dyz     :     0.020219
      dx2y2   :     0.019502
      dxy     :     0.020111
  6 C s       :     2.851469  s :     2.851469
      pz      :     1.049509  p :     3.108912
      px      :     1.032441
      py      :     1.026962
      dz2     :     0.022490  d :     0.085047
      dxz     :     0.017557
      dyz     :     0.006222
      dx2y2   :     0.013944
      dxy     :     0.024833
  7 H s       :     0.747288  s :     0.747288
      pz      :     0.053958  p :     0.177805
      px      :     0.089433
      py      :     0.034413
  8 H s       :     0.928189  s :     0.928189
      pz      :     0.029352  p :     0.066140
      px      :     0.019839
      py      :     0.016949
  9 H s       :     0.890191  s :     0.890191
      pz      :     0.025494  p :     0.069126
      px      :     0.016317
      py      :     0.027315
 10 H s       :     0.896236  s :     0.896236
      pz      :     0.031646  p :     0.066914
      px      :     0.015303
      py      :     0.019965
 11 H s       :     0.908861  s :     0.908861
      pz      :     0.027288  p :     0.076132
      px      :     0.034145
      py      :     0.014700
 12 H s       :     0.893276  s :     0.893276
      pz      :     0.033255  p :     0.066943
      px      :     0.015206
      py      :     0.018481
 13 H s       :     0.901394  s :     0.901394
      pz      :     0.016516  p :     0.066365
      px      :     0.029023
      py      :     0.020827
 14 H s       :     0.899792  s :     0.899792
      pz      :     0.012963  p :     0.067970
      px      :     0.024314
      py      :     0.030693
 15 H s       :     0.896540  s :     0.896540
      pz      :     0.037686  p :     0.067236
      px      :     0.016242
      py      :     0.013307

SPIN
  0 O s       :     0.000325  s :     0.000325
      pz      :     0.000122  p :     0.000391
      px      :     0.000276
      py      :    -0.000007
      dz2     :     0.000006  d :     0.000020
      dxz     :    -0.000000
      dyz     :     0.000001
      dx2y2   :     0.000013
      dxy     :     0.000001
  1 O s       :    -0.000067  s :    -0.000067
      pz      :     0.000216  p :    -0.000570
      px      :    -0.000508
      py      :    -0.000279
      dz2     :     0.000002  d :     0.000043
      dxz     :     0.000008
      dyz     :     0.000016
      dx2y2   :    -0.000004
      dxy     :     0.000021
  2 C s       :     0.000611  s :     0.000611
      pz      :     0.000498  p :     0.004016
      px      :     0.000753
      py      :     0.002765
      dz2     :    -0.000012  d :    -0.000190
      dxz     :    -0.000295
      dyz     :     0.000300
      dx2y2   :    -0.000136
      dxy     :    -0.000047
  3 C s       :    -0.005748  s :    -0.005748
      pz      :    -0.009121  p :    -0.029833
      px      :    -0.011869
      py      :    -0.008844
      dz2     :     0.005020  d :     0.019418
      dxz     :     0.001344
      dyz     :     0.009721
      dx2y2   :     0.001422
      dxy     :     0.001912
  4 C s       :     0.034445  s :     0.034445
      pz      :     0.606147  p :     0.846236
      px      :     0.218834
      py      :     0.021254
      dz2     :    -0.000976  d :    -0.004357
      dxz     :    -0.001678
      dyz     :    -0.000245
      dx2y2   :    -0.000743
      dxy     :    -0.000714
  5 C s       :    -0.005712  s :    -0.005712
      pz      :    -0.006456  p :    -0.030346
      px      :    -0.006207
      py      :    -0.017683
      dz2     :     0.000456  d :     0.019369
      dxz     :     0.000701
      dyz     :     0.012277
      dx2y2   :     0.000651
      dxy     :     0.005285
  6 C s       :     0.000456  s :     0.000456
      pz      :     0.000881  p :     0.004099
      px      :     0.002186
      py      :     0.001032
      dz2     :    -0.000256  d :    -0.000287
      dxz     :    -0.000033
      dyz     :     0.000028
      dx2y2   :    -0.000013
      dxy     :    -0.000013
  7 H s       :     0.000364  s :     0.000364
      pz      :     0.000010  p :     0.000023
      px      :     0.000016
      py      :    -0.000003
  8 H s       :    -0.000055  s :    -0.000055
      pz      :     0.000109  p :     0.000121
      px      :     0.000006
      py      :     0.000006
  9 H s       :     0.026500  s :     0.026500
      pz      :    -0.000455  p :    -0.001028
      px      :     0.000106
      py      :    -0.000679
 10 H s       :     0.049475  s :     0.049475
      pz      :    -0.000617  p :    -0.001171
      px      :    -0.000080
      py      :    -0.000474
 11 H s       :    -0.025812  s :    -0.025812
      pz      :     0.015763  p :     0.024251
      px      :     0.007731
      py      :     0.000757
 12 H s       :     0.050361  s :     0.050361
      pz      :    -0.000730  p :    -0.001066
      px      :    -0.000071
      py      :    -0.000265
 13 H s       :     0.027576  s :     0.027576
      pz      :     0.000078  p :    -0.001010
      px      :    -0.000394
      py      :    -0.000694
 14 H s       :    -0.000343  s :    -0.000343
      pz      :    -0.000012  p :     0.000075
      px      :     0.000084
      py      :     0.000004
 15 H s       :    -0.000786  s :    -0.000786
      pz      :     0.000093  p :     0.000206
      px      :     0.000018
      py      :     0.000094


                      *****************************
                      * MAYER POPULATION ANALYSIS *
                      *****************************

  NA   - Mulliken gross atomic population
  ZA   - Total nuclear charge
  QA   - Mulliken gross atomic charge
  VA   - Mayer's total valence
  BVA  - Mayer's bonded valence
  FA   - Mayer's free valence

  ATOM       NA         ZA         QA         VA         BVA        FA
  0 O      8.1555     8.0000    -0.1555     1.9867     1.9867     0.0000
  1 O      8.2713     8.0000    -0.2713     1.9152     1.9152     0.0000
  2 C      5.9626     6.0000     0.0374     4.0466     4.0465     0.0000
  3 C      5.9337     6.0000     0.0663     3.8524     3.8473     0.0051
  4 C      6.1928     6.0000    -0.1928     3.9814     3.1941     0.7873
  5 C      5.9884     6.0000     0.0116     3.9594     3.9543     0.0051
  6 C      6.0546     6.0000    -0.0546     3.9828     3.9828     0.0000
  7 H      0.8094     1.0000     0.1906     1.0016     1.0016     0.0000
  8 H      0.9827     1.0000     0.0173     0.9893     0.9893     0.0000
  9 H      0.9349     1.0000     0.0651     1.0004     0.9994     0.0009
 10 H      0.9548     1.0000     0.0452     0.9746     0.9710     0.0035
 11 H      0.9656     1.0000     0.0344     0.9931     0.9897     0.0034
 12 H      0.9400     1.0000     0.0600     0.9748     0.9711     0.0037
 13 H      0.9543     1.0000     0.0457     0.9732     0.9721     0.0011
 14 H      0.9506     1.0000     0.0494     0.9899     0.9899     0.0000
 15 H      0.9488     1.0000     0.0512     0.9731     0.9731     0.0000

  Mayer bond orders larger than 0.100000
B(  0-O ,  1-O ) :   0.9313 B(  0-O ,  7-H ) :   0.9722 B(  1-O ,  2-C ) :   0.9286 
B(  2-C ,  3-C ) :   1.0215 B(  2-C ,  6-C ) :   1.0468 B(  2-C ,  8-H ) :   0.9419 
B(  3-C ,  4-C ) :   1.0355 B(  3-C ,  9-H ) :   0.9237 B(  3-C , 10-H ) :   0.9212 
B(  4-C ,  5-C ) :   1.0574 B(  4-C , 11-H ) :   0.9784 B(  5-C ,  6-C ) :   1.0473 
B(  5-C , 12-H ) :   0.9207 B(  5-C , 13-H ) :   0.9449 B(  6-C , 14-H ) :   0.9416 
B(  6-C , 15-H ) :   0.9459 


------------------
HIRSHFELD ANALYSIS
------------------

Total integrated alpha density =     28.000015148
Total integrated beta density  =     27.000011493

  ATOM     CHARGE      SPIN    
   0 O   -0.159251    0.001313
   1 O   -0.113862    0.000819
   2 C    0.059316    0.007509
   3 C   -0.057942    0.045811
   4 C   -0.023788    0.701915
   5 C   -0.049020    0.046166
   6 C   -0.041141    0.007389
   7 H    0.171713    0.000276
   8 H    0.016962    0.000490
   9 H    0.032144    0.024558
  10 H    0.026399    0.046460
  11 H    0.023933    0.042835
  12 H    0.028211    0.046912
  13 H    0.026357    0.026487
  14 H    0.029883    0.000186
  15 H    0.030059    0.000878

  TOTAL  -0.000027    1.000004

-------
TIMINGS
-------

Total SCF time: 0 days 0 hours 0 min 8 sec 

Total time                  ....       8.043 sec
Sum of individual times     ....       7.904 sec  ( 98.3%)

Fock matrix formation       ....       6.981 sec  ( 86.8%)
  Split-RI-J                ....       0.623 sec  (  8.9% of F)
  Chain of spheres X        ....       4.594 sec  ( 65.8% of F)
  XC integration            ....       1.707 sec  ( 24.5% of F)
    Basis function eval.    ....       0.448 sec  ( 26.2% of XC)
    Density eval.           ....       0.438 sec  ( 25.6% of XC)
    XC-Functional eval.     ....       0.142 sec  (  8.3% of XC)
    XC-Potential eval.      ....       0.500 sec  ( 29.3% of XC)
Diagonalization             ....       0.119 sec  (  1.5%)
Density matrix formation    ....       0.007 sec  (  0.1%)
Population analysis         ....       0.168 sec  (  2.1%)
Initial guess               ....       0.044 sec  (  0.5%)
Orbital Transformation      ....       0.000 sec  (  0.0%)
Orbital Orthonormalization  ....       0.000 sec  (  0.0%)
DIIS solution               ....       0.078 sec  (  1.0%)
Grid generation             ....       0.509 sec  (  6.3%)

Maximum memory used throughout the entire SCF-calculation: 52.0 MB


-------------------------------------------------------------------------------
                          DFT DISPERSION CORRECTION                            
                                                                               
                              DFTD3 V3.1  Rev 1                                
                          USING Becke-Johnson damping                          
-------------------------------------------------------------------------------
The PBE0 functional is recognized
Active option DFTDOPT                   ...         4   

molecular C6(AA) [au] = 1951.626139 


            DFT-D V3
 parameters
 s6 scaling factor         :     1.0000 
 a1 scaling factor         :     0.4145 
 s8 scaling factor         :     1.2177 
 a2 scaling factor         :     4.8593 
 ad hoc parameters k1-k3   :    16.0000     1.3333    -4.0000 

 Edisp/kcal,au: -7.122855340236  -0.011350991299 
 E6   /kcal   :  -4.584151096 
 E8   /kcal   :  -2.538704244 
 % E8         :  35.641665070 

-------------------------   ----------------
Dispersion correction           -0.011350991
-------------------------   ----------------


-------------------------   --------------------
FINAL SINGLE POINT ENERGY      -345.607086765443
-------------------------   --------------------



           ************************************************************
           *        Program running with 8 parallel MPI-processes     *
           *              working on a common directory               *
           ************************************************************
------------------------------------------------------------------------------
                         ORCA SCF GRADIENT CALCULATION
------------------------------------------------------------------------------

 ... reading COSX grid (gridx3)
Gradient of the Kohn-Sham DFT energy:
Kohn-Sham wavefunction type      ... UKS
Hartree-Fock exchange scaling    ...    0.250
Number of operators              ...    2
Number of atoms                  ...   16
Basis set dimensions             ...  143
Integral neglect threshold       ... 2.5e-11
Integral primitive cutoff        ... 2.5e-12
SHARK Integral package           ... ON

Nuc. rep. gradient       (SHARK) ... done (  0.0 sec)
HCore & Overlap gradient (SHARK) ... done (  0.0 sec)
RI-J gradient            (SHARK) ... done (  0.1 sec)
COSX-gradient                    ... done (  1.1 sec)
[...]
      pz      :     0.005642  p :     0.022732
      px      :     0.010129
      py      :     0.006961
 14 H s       :     0.928761  s :     0.928761
      pz      :     0.004327  p :     0.022629
      px      :     0.008221
      py      :     0.010081
 15 H s       :     0.926789  s :     0.926789
      pz      :     0.013002  p :     0.022764
      px      :     0.005390
      py      :     0.004372

SPIN
  0 O s       :     0.000027  s :     0.000027
      pz      :     0.000153  p :     0.000335
      px      :     0.000195
      py      :    -0.000012
      dz2     :     0.000002  d :     0.000006
      dxz     :    -0.000000
      dyz     :     0.000002
      dx2y2   :     0.000002
      dxy     :     0.000000
  1 O s       :     0.000046  s :     0.000046
      pz      :     0.000176  p :    -0.000719
      px      :    -0.000547
      py      :    -0.000348
      dz2     :    -0.000000  d :     0.000008
      dxz     :     0.000001
      dyz     :     0.000002
      dx2y2   :    -0.000003
      dxy     :     0.000007
  2 C s       :     0.001067  s :     0.001067
      pz      :     0.000268  p :     0.005059
      px      :     0.001321
      py      :     0.003470
      dz2     :     0.000000  d :    -0.000112
      dxz     :    -0.000128
      dyz     :     0.000124
      dx2y2   :    -0.000100
      dxy     :    -0.000007
  3 C s       :    -0.033682  s :    -0.033682
      pz      :    -0.026547  p :    -0.081321
      px      :    -0.032082
      py      :    -0.022692
      dz2     :     0.002118  d :     0.007671
      dxz     :     0.000551
      dyz     :     0.003879
      dx2y2   :     0.000578
      dxy     :     0.000546
  4 C s       :     0.139081  s :     0.139081
      pz      :     0.655422  p :     0.938818
      px      :     0.248601
      py      :     0.034796
      dz2     :    -0.000920  d :    -0.002585
      dxz     :    -0.001644
      dyz     :     0.000093
      dx2y2   :    -0.000088
      dxy     :    -0.000026
  5 C s       :    -0.033873  s :    -0.033873
      pz      :    -0.021475  p :    -0.081352
      px      :    -0.014364
      py      :    -0.045513
      dz2     :     0.000023  d :     0.007548
      dxz     :     0.000291
      dyz     :     0.005091
      dx2y2   :    -0.000007
      dxy     :     0.002150
  6 C s       :     0.002528  s :     0.002528
      pz      :     0.001470  p :     0.006144
      px      :     0.002587
      py      :     0.002087
      dz2     :    -0.000129  d :    -0.000166
      dxz     :    -0.000004
      dyz     :    -0.000003
      dx2y2   :     0.000012
      dxy     :    -0.000042
  7 H s       :     0.000425  s :     0.000425
      pz      :     0.000009  p :     0.000000
      px      :    -0.000007
      py      :    -0.000001
  8 H s       :    -0.000183  s :    -0.000183
      pz      :    -0.000010  p :    -0.000014
      px      :     0.000008
      py      :    -0.000013
  9 H s       :     0.031123  s :     0.031123
      pz      :    -0.000069  p :    -0.000277
      px      :     0.000034
      py      :    -0.000242
 10 H s       :     0.057503  s :     0.057503
      pz      :    -0.000307  p :    -0.000356
      px      :     0.000208
      py      :    -0.000257
 11 H s       :    -0.057579  s :    -0.057579
      pz      :     0.003997  p :     0.005744
      px      :     0.001793
      py      :    -0.000045
 12 H s       :     0.059083  s :     0.059083
      pz      :    -0.000011  p :    -0.000326
      px      :     0.000016
      py      :    -0.000331
 13 H s       :     0.032140  s :     0.032140
      pz      :     0.000002  p :    -0.000278
      px      :     0.000022
      py      :    -0.000302
 14 H s       :    -0.000589  s :    -0.000589
      pz      :    -0.000005  p :    -0.000011
      px      :    -0.000006
      py      :    -0.000000
 15 H s       :    -0.000930  s :    -0.000930
      pz      :     0.000010  p :    -0.000004
      px      :    -0.000011
      py      :    -0.000003


                     *******************************
                     * LOEWDIN POPULATION ANALYSIS *
                     *******************************

-------------------------------------------
LOEWDIN ATOMIC CHARGES AND SPIN POPULATIONS
-------------------------------------------
   0 O :   -0.056741    0.000830
   1 O :   -0.096652   -0.000512
   2 C :    0.039078    0.004209
   3 C :   -0.067888   -0.015976
   4 C :   -0.025464    0.875375
   5 C :   -0.057072   -0.016615
   6 C :   -0.045587    0.004267
   7 H :    0.073733    0.000350
   8 H :    0.005124    0.000020
   9 H :    0.040483    0.026354
  10 H :    0.036251    0.047880
  11 H :    0.014687   -0.001308
  12 H :    0.039821    0.049054
  13 H :    0.032270    0.027008
  14 H :    0.032041   -0.000341
  15 H :    0.035915   -0.000596

----------------------------------------------------
LOEWDIN REDUCED ORBITAL CHARGES AND SPIN POPULATIONS
----------------------------------------------------
CHARGE
  0 O s       :     3.541512  s :     3.541512
      pz      :     1.807751  p :     4.480064
      px      :     1.300089
      py      :     1.372224
      dz2     :     0.004188  d :     0.035165
      dxz     :     0.004576
      dyz     :     0.005845
      dx2y2   :     0.012685
      dxy     :     0.007871
  1 O s       :     3.562225  s :     3.562225
      pz      :     1.559328  p :     4.493334
      px      :     1.608513
      py      :     1.325493
      dz2     :     0.008085  d :     0.041092
      dxz     :     0.007691
      dyz     :     0.008365
      dx2y2   :     0.008151
      dxy     :     0.008799
  2 C s       :     2.866201  s :     2.866201
      pz      :     0.905316  p :     2.935771
      px      :     0.982155
      py      :     1.048300
      dz2     :     0.036908  d :     0.158949
      dxz     :     0.046072
      dyz     :     0.020529
      dx2y2   :     0.020423
      dxy     :     0.035017
  3 C s       :     2.846051  s :     2.846051
      pz      :     1.062340  p :     3.129687
      px      :     1.029638
      py      :     1.037709
      dz2     :     0.012745  d :     0.092150
      dxz     :     0.013812
      dyz     :     0.025515
      dx2y2   :     0.012007
      dxy     :     0.028071
  4 C s       :     2.911900  s :     2.911900
      pz      :     0.997421  p :     3.040448
      px      :     1.022156
      py      :     1.020871
      dz2     :     0.005609  d :     0.073115
      dxz     :     0.009989
      dyz     :     0.012949
      dx2y2   :     0.021634
      dxy     :     0.022933
  5 C s       :     2.840637  s :     2.840637
      pz      :     1.047217  p :     3.122566
      px      :     1.033900
      py      :     1.041449
      dz2     :     0.015434  d :     0.093869
      dxz     :     0.018309
      dyz     :     0.020328
      dx2y2   :     0.019561
      dxy     :     0.020237
  6 C s       :     2.850207  s :     2.850207
      pz      :     1.049532  p :     3.109782
      px      :     1.033200
      py      :     1.027050
      dz2     :     0.022777  d :     0.085598
      dxz     :     0.017694
      dyz     :     0.006201
      dx2y2   :     0.013938
      dxy     :     0.024987
  7 H s       :     0.748143  s :     0.748143
      pz      :     0.055802  p :     0.178125
      px      :     0.087890
      py      :     0.034433
  8 H s       :     0.928673  s :     0.928673
      pz      :     0.028957  p :     0.066202
      px      :     0.020488
      py      :     0.016757
  9 H s       :     0.890245  s :     0.890245
      pz      :     0.025447  p :     0.069272
      px      :     0.016666
      py      :     0.027159
 10 H s       :     0.896622  s :     0.896622
      pz      :     0.031433  p :     0.067127
      px      :     0.015383
      py      :     0.020312
 11 H s       :     0.908837  s :     0.908837
      pz      :     0.027428  p :     0.076476
      px      :     0.034268
      py      :     0.014780
 12 H s       :     0.893033  s :     0.893033
      pz      :     0.033303  p :     0.067146
      px      :     0.015211
      py      :     0.018633
 13 H s       :     0.901344  s :     0.901344
      pz      :     0.016445  p :     0.066387
      px      :     0.029132
      py      :     0.020809
 14 H s       :     0.899941  s :     0.899941
      pz      :     0.012962  p :     0.068018
      px      :     0.024463
      py      :     0.030594
 15 H s       :     0.896737  s :     0.896737
      pz      :     0.037625  p :     0.067348
      px      :     0.016310
      py      :     0.013412

SPIN
  0 O s       :     0.000316  s :     0.000316
      pz      :     0.000165  p :     0.000497
      px      :     0.000332
      py      :    -0.000001
      dz2     :     0.000005  d :     0.000017
      dxz     :    -0.000000
      dyz     :     0.000002
      dx2y2   :     0.000012
      dxy     :    -0.000001
  1 O s       :    -0.000069  s :    -0.000069
      pz      :     0.000251  p :    -0.000484
      px      :    -0.000456
      py      :    -0.000280
      dz2     :     0.000002  d :     0.000041
      dxz     :     0.000009
      dyz     :     0.000017
      dx2y2   :    -0.000004
      dxy     :     0.000018
  2 C s       :     0.000566  s :     0.000566
      pz      :     0.000496  p :     0.003838
      px      :     0.000699
      py      :     0.002643
      dz2     :    -0.000012  d :    -0.000196
      dxz     :    -0.000292
      dyz     :     0.000287
      dx2y2   :    -0.000132
      dxy     :    -0.000046
  3 C s       :    -0.005774  s :    -0.005774
      pz      :    -0.009246  p :    -0.029807
      px      :    -0.011827
      py      :    -0.008734
      dz2     :     0.005025  d :     0.019604
      dxz     :     0.001347
      dyz     :     0.009767
      dx2y2   :     0.001429
      dxy     :     0.002036
  4 C s       :     0.034287  s :     0.034287
      pz      :     0.603103  p :     0.845457
      px      :     0.221527
      py      :     0.020827
      dz2     :    -0.000965  d :    -0.004368
      dxz     :    -0.001701
      dyz     :    -0.000248
      dx2y2   :    -0.000742
      dxy     :    -0.000712
  5 C s       :    -0.005715  s :    -0.005715
      pz      :    -0.006428  p :    -0.030339
      px      :    -0.006213
      py      :    -0.017699
      dz2     :     0.000462  d :     0.019439
      dxz     :     0.000685
      dyz     :     0.012274
      dx2y2   :     0.000651
      dxy     :     0.005367
  6 C s       :     0.000442  s :     0.000442
      pz      :     0.000870  p :     0.004127
      px      :     0.002178
      py      :     0.001079
      dz2     :    -0.000259  d :    -0.000302
      dxz     :    -0.000035
      dyz     :     0.000023
      dx2y2   :    -0.000019
      dxy     :    -0.000013
  7 H s       :     0.000318  s :     0.000318
      pz      :     0.000013  p :     0.000032
      px      :     0.000022
      py      :    -0.000003
  8 H s       :    -0.000096  s :    -0.000096
      pz      :     0.000102  p :     0.000117
      px      :     0.000006
      py      :     0.000009
  9 H s       :     0.027401  s :     0.027401
      pz      :    -0.000456  p :    -0.001047
      px      :     0.000091
      py      :    -0.000682
 10 H s       :     0.049067  s :     0.049067
      pz      :    -0.000576  p :    -0.001187
      px      :    -0.000097
      py      :    -0.000514
 11 H s       :    -0.025691  s :    -0.025691
      pz      :     0.015812  p :     0.024383
      px      :     0.007824
      py      :     0.000747
 12 H s       :     0.050158  s :     0.050158
      pz      :    -0.000730  p :    -0.001104
      px      :    -0.000058
      py      :    -0.000315
 13 H s       :     0.028014  s :     0.028014
      pz      :     0.000083  p :    -0.001005
      px      :    -0.000399
      py      :    -0.000689
 14 H s       :    -0.000416  s :    -0.000416
      pz      :    -0.000013  p :     0.000074
      px      :     0.000083
      py      :     0.000004
 15 H s       :    -0.000807  s :    -0.000807
      pz      :     0.000094  p :     0.000211
      px      :     0.000019
      py      :     0.000097


                      *****************************
                      * MAYER POPULATION ANALYSIS *
                      *****************************

  NA   - Mulliken gross atomic population
  ZA   - Total nuclear charge
  QA   - Mulliken gross atomic charge
  VA   - Mayer's total valence
  BVA  - Mayer's bonded valence
  FA   - Mayer's free valence

  ATOM       NA         ZA         QA         VA         BVA        FA
  0 O      8.1532     8.0000    -0.1532     1.9905     1.9905     0.0000
  1 O      8.2702     8.0000    -0.2702     1.9122     1.9122     0.0000
  2 C      5.9719     6.0000     0.0281     4.0504     4.0503     0.0000
  3 C      5.9283     6.0000     0.0717     3.8462     3.8412     0.0050
  4 C      6.1906     6.0000    -0.1906     3.9837     3.1975     0.7862
  5 C      5.9860     6.0000     0.0140     3.9604     3.9553     0.0051
  6 C      6.0521     6.0000    -0.0521     3.9819     3.9819     0.0000
  7 H      0.8106     1.0000     0.1894     1.0022     1.0022     0.0000
  8 H      0.9837     1.0000     0.0163     0.9885     0.9885     0.0000
  9 H      0.9357     1.0000     0.0643     1.0018     1.0008     0.0010
 10 H      0.9551     1.0000     0.0449     0.9746     0.9712     0.0035
 11 H      0.9664     1.0000     0.0336     0.9934     0.9900     0.0034
 12 H      0.9397     1.0000     0.0603     0.9755     0.9719     0.0037
 13 H      0.9554     1.0000     0.0446     0.9731     0.9721     0.0011
 14 H      0.9514     1.0000     0.0486     0.9899     0.9899     0.0000
 15 H      0.9496     1.0000     0.0504     0.9732     0.9732     0.0000

  Mayer bond orders larger than 0.100000
B(  0-O ,  1-O ) :   0.9310 B(  0-O ,  7-H ) :   0.9725 B(  1-O ,  2-C ) :   0.9257 
B(  2-C ,  3-C ) :   1.0205 B(  2-C ,  6-C ) :   1.0477 B(  2-C ,  8-H ) :   0.9418 
B(  3-C ,  4-C ) :   1.0342 B(  3-C ,  9-H ) :   0.9220 B(  3-C , 10-H ) :   0.9216 
B(  4-C ,  5-C ) :   1.0582 B(  4-C , 11-H ) :   0.9786 B(  5-C ,  6-C ) :   1.0463 
B(  5-C , 12-H ) :   0.9205 B(  5-C , 13-H ) :   0.9444 B(  6-C , 14-H ) :   0.9415 
B(  6-C , 15-H ) :   0.9456 


------------------
HIRSHFELD ANALYSIS
------------------

Total integrated alpha density =     28.000014737
Total integrated beta density  =     27.000010809

  ATOM     CHARGE      SPIN    
   0 O   -0.158176    0.001448
   1 O   -0.112684    0.001017
   2 C    0.059022    0.007374
   3 C   -0.058493    0.046047
   4 C   -0.023141    0.701053
   5 C   -0.049020    0.046195
   6 C   -0.041322    0.007382
   7 H    0.170454    0.000252
   8 H    0.017162    0.000422
   9 H    0.031293    0.025278
  10 H    0.026449    0.046020
  11 H    0.024168    0.043005
  12 H    0.028489    0.046601
  13 H    0.026103    0.026927
  14 H    0.029788    0.000117
  15 H    0.029882    0.000865

  TOTAL  -0.000026    1.000004

-------
TIMINGS
-------

Total SCF time: 0 days 0 hours 0 min 5 sec 

Total time                  ....       5.381 sec
Sum of individual times     ....       5.254 sec  ( 97.6%)

Fock matrix formation       ....       4.503 sec  ( 83.7%)
  Split-RI-J                ....       0.388 sec  (  8.6% of F)
  Chain of spheres X        ....       3.296 sec  ( 73.2% of F)
  XC integration            ....       0.790 sec  ( 17.5% of F)
    Basis function eval.    ....       0.239 sec  ( 30.3% of XC)
    Density eval.           ....       0.222 sec  ( 28.1% of XC)
    XC-Functional eval.     ....       0.075 sec  (  9.5% of XC)
    XC-Potential eval.      ....       0.179 sec  ( 22.7% of XC)
Diagonalization             ....       0.064 sec  (  1.2%)
Density matrix formation    ....       0.004 sec  (  0.1%)
Population analysis         ....       0.170 sec  (  3.2%)
Initial guess               ....       0.009 sec  (  0.2%)
Orbital Transformation      ....       0.000 sec  (  0.0%)
Orbital Orthonormalization  ....       0.005 sec  (  0.1%)
DIIS solution               ....       0.037 sec  (  0.7%)
Grid generation             ....       0.465 sec  (  8.6%)

Maximum memory used throughout the entire SCF-calculation: 51.9 MB


-------------------------------------------------------------------------------
                          DFT DISPERSION CORRECTION                            
                                                                               
                              DFTD3 V3.1  Rev 1                                
                          USING Becke-Johnson damping                          
-------------------------------------------------------------------------------
The PBE0 functional is recognized
Active option DFTDOPT                   ...         4   

molecular C6(AA) [au] = 1951.426623 


            DFT-D V3
 parameters
 s6 scaling factor         :     1.0000 
 a1 scaling factor         :     0.4145 
 s8 scaling factor         :     1.2177 
 a2 scaling factor         :     4.8593 
 ad hoc parameters k1-k3   :    16.0000     1.3333    -4.0000 

 Edisp/kcal,au: -7.138978336262  -0.011376684926 
 E6   /kcal   :  -4.594443719 
 E8   /kcal   :  -2.544534617 
 % E8         :  35.642839879 

-------------------------   ----------------
Dispersion correction           -0.011376685
-------------------------   ----------------


-------------------------   --------------------
FINAL SINGLE POINT ENERGY      -345.607267510853
-------------------------   --------------------

                                *** OPTIMIZATION RUN DONE ***

                            ***************************************
                            *     ORCA property calculations      *
                            ***************************************

                                    ---------------------
                                    Active property flags
                                    ---------------------
   (+) Dipole Moment


------------------------------------------------------------------------------
                       ORCA ELECTRIC PROPERTIES CALCULATION
------------------------------------------------------------------------------

Dipole Moment Calculation                       ... on
Quadrupole Moment Calculation                   ... off
Polarizability Calculation                      ... off
GBWName                                         ... r0_C5H9O2_opt_orca.gbw
Electron density                                ... r0_C5H9O2_opt_orca.scfp
The origin for moment calculation is the CENTER OF MASS  = ( 0.540550, -0.183894  0.390769)

-------------
DIPOLE MOMENT
-------------
                                X             Y             Z
Electronic contribution:      3.84790      -1.27791       2.26168
Nuclear contribution   :     -3.59295       1.28209      -2.88843
                        -----------------------------------------
Total Dipole Moment    :      0.25495       0.00418      -0.62675
                        -----------------------------------------
Magnitude (a.u.)       :      0.67663
Magnitude (Debye)      :      1.71987



--------------------
Rotational spectrum 
--------------------
 
Rotational constants in cm-1:     0.162498     0.070700     0.060941 
Rotational constants in MHz :  4871.577815  2119.519956  1826.955507 

 Dipole components along the rotational axes: 
x,y,z [a.u.] :    -0.068634     0.284361    -0.610134 
x,y,z [Debye]:    -0.174454     0.722787    -1.550836 

 

Timings for individual modules:

Sum of individual times         ...       50.990 sec (=   0.850 min)
GTO integral calculation        ...        2.498 sec (=   0.042 min)   4.9 %
SCF iterations                  ...       36.438 sec (=   0.607 min)  71.5 %
SCF Gradient evaluation         ...       11.883 sec (=   0.198 min)  23.3 %
Geometry relaxation             ...        0.170 sec (=   0.003 min)   0.3 %
                             ****ORCA TERMINATED NORMALLY****
TOTAL RUN TIME: 0 days 0 hours 0 minutes 52 seconds 839 msec
