
                                 *****************
                                 * O   R   C   A *
                                 *****************

                                            #,                                       
                                            ###                                      
                                            ####                                     
                                            #####                                    
                                            ######                                   
                                           ########,                                 
                                     ,,################,,,,,                         
                               ,,#################################,,                 
                          ,,##########################################,,             
                       ,#########################################, ''#####,          
                    ,#############################################,,   '####,        
                  ,##################################################,,,,####,       
                ,###########''''           ''''###############################       
              ,#####''   ,,,,##########,,,,          '''####'''          '####       
            ,##' ,,,,###########################,,,                        '##       
           ' ,,###''''                  '''############,,,                           
         ,,##''                                '''############,,,,        ,,,,,,###''
      ,#''                                            '''#######################'''  
     '                                                          ''''####''''         
             ,#######,   #######,   ,#######,      ##                                
            ,#'     '#,  ##    ##  ,#'     '#,    #''#        ######   ,####,        
            ##       ##  ##   ,#'  ##            #'  '#       #        #'  '#        
            ##       ##  #######   ##           ,######,      #####,   #    #        
            '#,     ,#'  ##    ##  '#,     ,#' ,#      #,         ##   #,  ,#        
             '#######'   ##     ##  '#######'  #'      '#     #####' # '####'        



                  #######################################################
                  #                        -***-                        #
                  #          Department of theory and spectroscopy      #
                  #    Directorship and core code : Frank Neese         #
                  #        Max Planck Institute fuer Kohlenforschung    #
                  #                Kaiser Wilhelm Platz 1               #
                  #                 D-45470 Muelheim/Ruhr               #
                  #                      Germany                        #
                  #                                                     #
                  #                  All rights reserved                #
                  #                        -***-                        #
                  #######################################################


                         Program Version 5.0.4 -  RELEASE  -


 With contributions from (in alphabetic order):
   Daniel Aravena         : Magnetic Suceptibility
   Michael Atanasov       : Ab Initio Ligand Field Theory (pilot matlab implementation)
   Alexander A. Auer      : GIAO ZORA, VPT2 properties, NMR spectrum
   Ute Becker             : Parallelization
   Giovanni Bistoni       : ED, misc. LED, open-shell LED, HFLD
   Martin Brehm           : Molecular dynamics
   Dmytro Bykov           : SCF Hessian
   Vijay G. Chilkuri      : MRCI spin determinant printing, contributions to CSF-ICE
   Dipayan Datta          : RHF DLPNO-CCSD density
   Achintya Kumar Dutta   : EOM-CC, STEOM-CC
   Dmitry Ganyushin       : Spin-Orbit,Spin-Spin,Magnetic field MRCI
   Miquel Garcia          : C-PCM and meta-GGA Hessian, CC/C-PCM, Gaussian charge scheme
   Yang Guo               : DLPNO-NEVPT2, F12-NEVPT2, CIM, IAO-localization
   Andreas Hansen         : Spin unrestricted coupled pair/coupled cluster methods
   Benjamin Helmich-Paris : MC-RPA, TRAH-SCF, COSX integrals
   Lee Huntington         : MR-EOM, pCC
   Robert Izsak           : Overlap fitted RIJCOSX, COSX-SCS-MP3, EOM
   Marcus Kettner         : VPT2
   Christian Kollmar      : KDIIS, OOCD, Brueckner-CCSD(T), CCSD density, CASPT2, CASPT2-K
   Simone Kossmann        : Meta GGA functionals, TD-DFT gradient, OOMP2, MP2 Hessian
   Martin Krupicka        : Initial AUTO-CI
   Lucas Lang             : DCDCAS
   Marvin Lechner         : AUTO-CI (C++ implementation), FIC-MRCC
   Dagmar Lenk            : GEPOL surface, SMD
   Dimitrios Liakos       : Extrapolation schemes; Compound Job, initial MDCI parallelization
   Dimitrios Manganas     : Further ROCIS development; embedding schemes
   Dimitrios Pantazis     : SARC Basis sets
   Anastasios Papadopoulos: AUTO-CI, single reference methods and gradients
   Taras Petrenko         : DFT Hessian,TD-DFT gradient, ASA, ECA, R-Raman, ABS, FL, XAS/XES, NRVS
   Peter Pinski           : DLPNO-MP2, DLPNO-MP2 Gradient
   Christoph Reimann      : Effective Core Potentials
   Marius Retegan         : Local ZFS, SOC
   Christoph Riplinger    : Optimizer, TS searches, QM/MM, DLPNO-CCSD(T), (RO)-DLPNO pert. Triples
   Tobias Risthaus        : Range-separated hybrids, TD-DFT gradient, RPA, STAB
   Michael Roemelt        : Original ROCIS implementation
   Masaaki Saitow         : Open-shell DLPNO-CCSD energy and density
   Barbara Sandhoefer     : DKH picture change effects
   Avijit Sen             : IP-ROCIS
   Kantharuban Sivalingam : CASSCF convergence, NEVPT2, FIC-MRCI
   Bernardo de Souza      : ESD, SOC TD-DFT
   Georgi Stoychev        : AutoAux, RI-MP2 NMR, DLPNO-MP2 response
   Willem Van den Heuvel  : Paramagnetic NMR
   Boris Wezisla          : Elementary symmetry handling
   Frank Wennmohs         : Technical directorship


 We gratefully acknowledge several colleagues who have allowed us to
 interface, adapt or use parts of their codes:
   Stefan Grimme, W. Hujo, H. Kruse, P. Pracht,  : VdW corrections, initial TS optimization,
                  C. Bannwarth, S. Ehlert          DFT functionals, gCP, sTDA/sTD-DF
   Ed Valeev, F. Pavosevic, A. Kumar             : LibInt (2-el integral package), F12 methods
   Garnet Chan, S. Sharma, J. Yang, R. Olivares  : DMRG
   Ulf Ekstrom                                   : XCFun DFT Library
   Mihaly Kallay                                 : mrcc  (arbitrary order and MRCC methods)
   Jiri Pittner, Ondrej Demel                    : Mk-CCSD
   Frank Weinhold                                : gennbo (NPA and NBO analysis)
   Christopher J. Cramer and Donald G. Truhlar   : smd solvation model
   Lars Goerigk                                  : TD-DFT with DH, B97 family of functionals
   V. Asgeirsson, H. Jonsson                     : NEB implementation
   FAccTs GmbH                                   : IRC, NEB, NEB-TS, DLPNO-Multilevel, CI-OPT
                                                   MM, QMMM, 2- and 3-layer-ONIOM, Crystal-QMMM,
                                                   LR-CPCM, SF, NACMEs, symmetry and pop. for TD-DFT,
                                                   nearIR, NL-DFT gradient (VV10), updates on ESD,
                                                   ML-optimized integration grids
   S Lehtola, MJT Oliveira, MAL Marques          : LibXC Library
   Liviu Ungur et al                             : ANISO software


 Your calculation uses the libint2 library for the computation of 2-el integrals
 For citations please refer to: http://libint.valeyev.net

 Your ORCA version has been built with support for libXC version: 5.1.0
 For citations please refer to: https://tddft.org/programs/libxc/

 This ORCA versions uses:
   CBLAS   interface :  Fast vector & matrix operations
   LAPACKE interface :  Fast linear algebra routines
   SCALAPACK package :  Parallel linear algebra routines
   Shared memory     :  Shared parallel matrices
   BLAS/LAPACK       :  OpenBLAS 0.3.15  USE64BITINT DYNAMIC_ARCH NO_AFFINITY Haswell SINGLE_THREADED
        Core in use  :  Haswell
   Copyright (c) 2011-2014, The OpenBLAS Project


Your calculation utilizes the atom-pairwise dispersion correction
with the Becke-Johnson damping scheme (D3BJ)
Cite in your paper:
S.Grimme, S.Ehrlich, L.Goerigk, J Comput Chem, (2011), 32, 1456–1465 
S.Grimme, J.Antony, S.Ehrlich and H.Krieg, J.Chem.Phys., 132, (2010), 154104 
   

================================================================================

----- Orbital basis set information -----
Your calculation utilizes the basis: def2-TZVP
   F. Weigend and R. Ahlrichs, Phys. Chem. Chem. Phys. 7, 3297 (2005).

----- AuxJ basis set information -----
Your calculation utilizes the auxiliary basis: def2/J
   F. Weigend, Phys. Chem. Chem. Phys. 8, 1057 (2006).

================================================================================
                                        WARNINGS
                       Please study these warnings very carefully!
================================================================================


INFO   : the flag for use of the SHARK integral package has been found!

================================================================================
                                       INPUT FILE
================================================================================
NAME = r1_C2H4_sp_orca.inp
|  1> ! SP PBE0 RIJCOSX D3BJ def2-TZVP def2/J 
|  2> %output 
|  3> xyzfile=True 
|  4> end 
|  5> %scf 
|  6> maxiter 250 
|  7> end
|  8> %output
|  9> Print[P_Hirshfeld] = 1
| 10> end
| 11> % maxcore
| 12> 4000
| 13> %pal nprocs 8
| 14> end
| 15> *xyz 0 1
| 16> C   -0.63016909  -0.20737778  -0.05023253 
| 17> C    0.63012897   0.20737764   0.05019787 
| 18> H   -1.40037814   0.40492616  -0.52915446 
| 19> H   -0.94921021  -1.17778071   0.34225499 
| 20> H    1.40034212  -0.40492313   0.52911819 
| 21> H    0.94918635   1.17777782  -0.34228405 
| 22> *
| 23> 
| 24>                          ****END OF INPUT****
================================================================================

                       ****************************
                       * Single Point Calculation *
                       ****************************

---------------------------------
CARTESIAN COORDINATES (ANGSTROEM)
---------------------------------
  C     -0.630169   -0.207378   -0.050233
  C      0.630129    0.207378    0.050198
  H     -1.400378    0.404926   -0.529154
  H     -0.949210   -1.177781    0.342255
  H      1.400342   -0.404923    0.529118
  H      0.949186    1.177778   -0.342284

----------------------------
CARTESIAN COORDINATES (A.U.)
----------------------------
  NO LB      ZA    FRAG     MASS         X           Y           Z
   0 C     6.0000    0    12.011   -1.190847   -0.391887   -0.094926
   1 C     6.0000    0    12.011    1.190771    0.391887    0.094860
   2 H     1.0000    0     1.008   -2.646331    0.765200   -0.999957
   3 H     1.0000    0     1.008   -1.793747   -2.225683    0.646768
   4 H     1.0000    0     1.008    2.646263   -0.765194    0.999888
   5 H     1.0000    0     1.008    1.793702    2.225678   -0.646823

--------------------------------
INTERNAL COORDINATES (ANGSTROEM)
--------------------------------
 C      0   0   0     0.000000000000     0.00000000     0.00000000
 C      1   0   0     1.330586157941     0.00000000     0.00000000
 H      1   2   0     1.094305401008   121.68671154     0.00000000
 H      1   2   3     1.094310530041   121.70107571   180.02937066
 H      2   1   3     1.094305808394   121.68699064   180.00005737
 H      2   1   3     1.094310823580   121.70198725   359.97065059

---------------------------
INTERNAL COORDINATES (A.U.)
---------------------------
 C      0   0   0     0.000000000000     0.00000000     0.00000000
 C      1   0   0     2.514443436094     0.00000000     0.00000000
 H      1   2   0     2.067937514777   121.68671154     0.00000000
 H      1   2   3     2.067947207244   121.70107571   180.02937066
 H      2   1   3     2.067938284624   121.68699064   180.00005737
 H      2   1   3     2.067947761951   121.70198725   359.97065059

---------------------
BASIS SET INFORMATION
---------------------
There are 2 groups of distinct atoms

 Group   1 Type C   : 11s6p2d1f contracted to 5s3p2d1f pattern {62111/411/11/1}
 Group   2 Type H   : 5s1p contracted to 3s1p pattern {311/1}

Atom   0C    basis set group =>   1
Atom   1C    basis set group =>   1
Atom   2H    basis set group =>   2
Atom   3H    basis set group =>   2
Atom   4H    basis set group =>   2
Atom   5H    basis set group =>   2
---------------------------------
AUXILIARY/J BASIS SET INFORMATION
---------------------------------
There are 2 groups of distinct atoms

 Group   1 Type C   : 12s5p4d2f1g contracted to 6s4p3d1f1g pattern {711111/2111/211/2/1}
 Group   2 Type H   : 5s2p1d contracted to 3s1p1d pattern {311/2/1}

Atom   0C    basis set group =>   1
Atom   1C    basis set group =>   1
Atom   2H    basis set group =>   2
Atom   3H    basis set group =>   2
Atom   4H    basis set group =>   2
Atom   5H    basis set group =>   2


           ************************************************************
           *        Program running with 8 parallel MPI-processes     *
           *              working on a common directory               *
           ************************************************************
------------------------------------------------------------------------------
                           ORCA GTO INTEGRAL CALCULATION
                           -- RI-GTO INTEGRALS CHOSEN --
------------------------------------------------------------------------------
------------------------------------------------------------------------------
                   ___                                                        
                  /   \      - P O W E R E D   B Y -                         
                 /     \                                                     
                 |  |  |   _    _      __       _____    __    __             
                 |  |  |  | |  | |    /  \     |  _  \  |  |  /  |          
                  \  \/   | |  | |   /    \    | | | |  |  | /  /          
                 / \  \   | |__| |  /  /\  \   | |_| |  |  |/  /          
                |  |  |   |  __  | /  /__\  \  |    /   |      \           
                |  |  |   | |  | | |   __   |  |    \   |  |\   \          
                \     /   | |  | | |  |  |  |  | |\  \  |  | \   \       
                 \___/    |_|  |_| |__|  |__|  |_| \__\ |__|  \__/        
                                                                              
                      - O R C A' S   B I G   F R I E N D -                    
                                      &                                       
                       - I N T E G R A L  F E E D E R -                       
                                                                              
 v1 FN, 2020, v2 2021                                                         
------------------------------------------------------------------------------


Reading SHARK input file r1_C2H4_sp_orca.SHARKINP.tmp ... ok
----------------------
SHARK INTEGRAL PACKAGE
----------------------

Number of atoms                             ...      6
Number of basis functions                   ...     86
Number of shells                            ...     38
Maximum angular momentum                    ...      3
Integral batch strategy                     ... SHARK/LIBINT Hybrid
RI-J (if used) integral strategy            ... SPLIT-RIJ (Revised 2003 algorithm where possible)
Printlevel                                  ...      1
Contraction scheme used                     ... SEGMENTED contraction
Coulomb Range Separation                    ... NOT USED
Exchange Range Separation                   ... NOT USED
Finite Nucleus Model                        ... NOT USED
Auxiliary Coulomb fitting basis             ... AVAILABLE
   # of basis functions in Aux-J            ...    142
   # of shells in Aux-J                     ...     50
   Maximum angular momentum in Aux-J        ...      4
Auxiliary J/K fitting basis                 ... NOT available
Auxiliary Correlation fitting basis         ... NOT available
Auxiliary 'external' fitting basis          ... NOT available
Integral threshold                          ...     1.000000e-10
Primitive cut-off                           ...     1.000000e-11
Primitive pair pre-selection threshold      ...     1.000000e-11

Calculating pre-screening integrals         ... done (  0.0 sec) Dimension = 38
Organizing shell pair data                  ... done (  0.0 sec)
Shell pair information
Total number of shell pairs                 ...       741
Shell pairs after pre-screening             ...       740
Total number of primitive shell pairs       ...      2136
Primitive shell pairs kept                  ...      1909
          la=0 lb=0:    252 shell pairs
          la=1 lb=0:    220 shell pairs
          la=1 lb=1:     55 shell pairs
          la=2 lb=0:     88 shell pairs
          la=2 lb=1:     40 shell pairs
          la=2 lb=2:     10 shell pairs
          la=3 lb=0:     44 shell pairs
          la=3 lb=1:     20 shell pairs
          la=3 lb=2:      8 shell pairs
          la=3 lb=3:      3 shell pairs

Calculating one electron integrals          ... done (  0.0 sec)
Calculating RI/J V-Matrix + Cholesky decomp.... done (  0.0 sec)
Calculating Nuclear repulsion               ... done (  0.0 sec) ENN=     33.247557720071 Eh

SHARK setup successfully completed in   0.1 seconds

Maximum memory used throughout the entire GTOINT-calculation: 14.4 MB


           ************************************************************
           *        Program running with 8 parallel MPI-processes     *
           *              working on a common directory               *
           ************************************************************
-------------------------------------------------------------------------------
                                 ORCA SCF
-------------------------------------------------------------------------------

------------
SCF SETTINGS
------------
Hamiltonian:
 Density Functional     Method          .... DFT(GTOs)
 Exchange Functional    Exchange        .... PBE
   PBE kappa parameter   XKappa         ....  0.804000
   PBE mue parameter    XMuePBE         ....  0.219520
 Correlation Functional Correlation     .... PBE
   PBE beta parameter  CBetaPBE         ....  0.066725
 LDA part of GGA corr.  LDAOpt          .... PW91-LDA
 Gradients option       PostSCFGGA      .... off
 Hybrid DFT is turned on
   Fraction HF Exchange ScalHFX         ....  0.250000
   Scaling of DF-GGA-X  ScalDFX         ....  0.750000
   Scaling of DF-GGA-C  ScalDFC         ....  1.000000
   Scaling of DF-LDA-C  ScalLDAC        ....  1.000000
   Perturbative correction              ....  0.000000
   Density functional embedding theory  .... OFF
   NL short-range parameter             ....  6.900000
 RI-approximation to the Coulomb term is turned on
   Number of AuxJ basis functions       .... 142
   RIJ-COSX (HFX calculated with COS-X)).... on


General Settings:
 Integral files         IntName         .... r1_C2H4_sp_orca
 Hartree-Fock type      HFTyp           .... RHF
 Total Charge           Charge          ....    0
 Multiplicity           Mult            ....    1
 Number of Electrons    NEL             ....   16
 Basis Dimension        Dim             ....   86
 Nuclear Repulsion      ENuc            ....     33.2475577201 Eh

Convergence Acceleration:
 DIIS                   CNVDIIS         .... on
   Start iteration      DIISMaxIt       ....    12
   Startup error        DIISStart       ....  0.200000
   # of expansion vecs  DIISMaxEq       ....     5
   Bias factor          DIISBfac        ....   1.050
   Max. coefficient     DIISMaxC        ....  10.000
 Trust-Rad. Augm. Hess. CNVTRAH         .... auto
   Auto Start mean grad. ratio tolernc. ....  1.125000
   Auto Start start iteration           ....    20
   Auto Start num. interpolation iter.  ....    10
   Max. Number of Micro iterations      ....    16
   Max. Number of Macro iterations      .... Maxiter - #DIIS iter
   Number of Davidson start vectors     ....     2
   Converg. threshold I  (grad. norm)   ....   5.000e-05
   Converg. threshold II (energy diff.) ....   1.000e-06
   Grad. Scal. Fac. for Micro threshold ....   0.100
   Minimum threshold for Micro iter.    ....   0.010
   NR start threshold (gradient norm)   ....   0.001
   Initial trust radius                 ....   0.400
   Minimum AH scaling param. (alpha)    ....   1.000
   Maximum AH scaling param. (alpha)    .... 1000.000
   Orbital update algorithm             .... Taylor
   White noise on init. David. guess    .... on
   Maximum white noise                  ....   0.010
   Quad. conv. algorithm                .... NR
 SOSCF                  CNVSOSCF        .... on
   Start iteration      SOSCFMaxIt      ....   150
   Startup grad/error   SOSCFStart      ....  0.003300
 Level Shifting         CNVShift        .... on
   Level shift para.    LevelShift      ....    0.2500
   Turn off err/grad.   ShiftErr        ....    0.0010
 Zerner damping         CNVZerner       .... off
 Static damping         CNVDamp         .... on
   Fraction old density DampFac         ....    0.7000
   Max. Damping (<1)    DampMax         ....    0.9800
   Min. Damping (>=0)   DampMin         ....    0.0000
   Turn off err/grad.   DampErr         ....    0.1000
 Fernandez-Rico         CNVRico         .... off

SCF Procedure:
 Maximum # iterations   MaxIter         ....   250
 SCF integral mode      SCFMode         .... Direct
   Integral package                     .... SHARK and LIBINT hybrid scheme
 Reset frequency        DirectResetFreq ....    20
 Integral Threshold     Thresh          ....  1.000e-10 Eh
 Primitive CutOff       TCut            ....  1.000e-11 Eh

Convergence Tolerance:
 Convergence Check Mode ConvCheckMode   .... Total+1el-Energy
 Convergence forced     ConvForced      .... 0
 Energy Change          TolE            ....  1.000e-06 Eh
 1-El. energy change                    ....  1.000e-03 Eh
 Orbital Gradient       TolG            ....  5.000e-05
 Orbital Rotation angle TolX            ....  5.000e-05
 DIIS Error             TolErr          ....  1.000e-06


Diagonalization of the overlap matrix:
Smallest eigenvalue                        ... 2.250e-04
Time for diagonalization                   ...    0.002 sec
Threshold for overlap eigenvalues          ... 1.000e-08
Number of eigenvalues below threshold      ... 0
Time for construction of square roots      ...    0.001 sec
Total time needed                          ...    0.004 sec

Time for model grid setup =    0.016 sec

------------------------------
INITIAL GUESS: MODEL POTENTIAL
------------------------------
Loading Hartree-Fock densities                     ... done
Calculating cut-offs                               ... done
Initializing the effective Hamiltonian             ... done
Setting up the integral package (SHARK)            ... done
Starting the Coulomb interaction                   ... done (   0.0 sec)
Reading the grid                                   ... done
Mapping shells                                     ... done
Starting the XC term evaluation                    ... done (   0.0 sec)
  promolecular density results
     # of electrons  =     15.998197480
     EX              =    -11.347442432
     EC              =     -0.487849040
     EX+EC           =    -11.835291472
Transforming the Hamiltonian                       ... done (   0.0 sec)
Diagonalizing the Hamiltonian                      ... done (   0.0 sec)
Back transforming the eigenvectors                 ... done (   0.0 sec)
Now organizing SCF variables                       ... done
                      ------------------
                      INITIAL GUESS DONE (   0.0 sec)
                      ------------------
-------------------
DFT GRID GENERATION
-------------------

General Integration Accuracy     IntAcc      ... 4.388
Radial Grid Type                 RadialGrid  ... OptM3 with GC (2021)
Angular Grid (max. ang.)         AngularGrid ... 4 (Lebedev-302)
Angular grid pruning method      GridPruning ... 4 (adaptive)
Weight generation scheme         WeightScheme... Becke
Basis function cutoff            BFCut       ... 1.0000e-10
Integration weight cutoff        WCut        ... 1.0000e-14
Angular grids for H and He will be reduced by one unit
Partially contracted basis set               ... off
Rotationally invariant grid construction     ... off

Total number of grid points                  ...    25318
Total number of batches                      ...      400
Average number of points per batch           ...       63
Average number of grid points per atom       ...     4220
Time for grid setup =    0.099 sec

--------------------
COSX GRID GENERATION
--------------------

GRIDX 1
-------
General Integration Accuracy     IntAcc      ... 3.816
Radial Grid Type                 RadialGrid  ... OptM3 with GC (2021)
Angular Grid (max. ang.)         AngularGrid ... 1 (Lebedev-50)
Angular grid pruning method      GridPruning ... 4 (adaptive)
Weight generation scheme         WeightScheme... Becke
Basis function cutoff            BFCut       ... 1.0000e-10
Integration weight cutoff        WCut        ... 1.0000e-14
Angular grids for H and He will be reduced by one unit
Partially contracted basis set               ... on
Rotationally invariant grid construction     ... off

Total number of grid points                  ...     3282
Total number of batches                      ...       54
Average number of points per batch           ...       60
Average number of grid points per atom       ...      547
UseSFitting                                  ... on

GRIDX 2
-------
General Integration Accuracy     IntAcc      ... 4.020
Radial Grid Type                 RadialGrid  ... OptM3 with GC (2021)
Angular Grid (max. ang.)         AngularGrid ... 2 (Lebedev-110)
Angular grid pruning method      GridPruning ... 4 (adaptive)
Weight generation scheme         WeightScheme... Becke
Basis function cutoff            BFCut       ... 1.0000e-10
Integration weight cutoff        WCut        ... 1.0000e-14
Angular grids for H and He will be reduced by one unit
Partially contracted basis set               ... on
Rotationally invariant grid construction     ... off

Total number of grid points                  ...     6906
Total number of batches                      ...      112
Average number of points per batch           ...       61
Average number of grid points per atom       ...     1151
UseSFitting                                  ... on

GRIDX 3
-------
General Integration Accuracy     IntAcc      ... 4.338
Radial Grid Type                 RadialGrid  ... OptM3 with GC (2021)
Angular Grid (max. ang.)         AngularGrid ... 3 (Lebedev-194)
Angular grid pruning method      GridPruning ... 4 (adaptive)
Weight generation scheme         WeightScheme... Becke
Basis function cutoff            BFCut       ... 1.0000e-10
Integration weight cutoff        WCut        ... 1.0000e-14
Angular grids for H and He will be reduced by one unit
Partially contracted basis set               ... on
Rotationally invariant grid construction     ... off

Total number of grid points                  ...    15240
Total number of batches                      ...      242
Average number of points per batch           ...       62
Average number of grid points per atom       ...     2540
UseSFitting                                  ... on

Time for X-Grid setup             =    0.071 sec

--------------
SCF ITERATIONS
--------------
ITER       Energy         Delta-E        Max-DP      RMS-DP      [F,P]     Damp
               ***  Starting incremental Fock matrix formation  ***
  0    -78.4319450780   0.000000000000 0.03005906  0.00132427  0.1567383 0.7000
  1    -78.4680981218  -0.036153043865 0.01843636  0.00097636  0.0869463 0.7000
                               ***Turning on DIIS***
  2    -78.4840084281  -0.015910306275 0.03021332  0.00171998  0.0370488 0.0000
  3    -78.5052608595  -0.021252431345 0.01290900  0.00068484  0.0445551 0.0000
  4    -78.5116740145  -0.006413155056 0.00270665  0.00020525  0.0097967 0.0000
                      *** Initiating the SOSCF procedure ***
                           *** Shutting down DIIS ***
                      *** Re-Reading the Fockian *** 
                      *** Removing any level shift *** 
ITER      Energy       Delta-E        Grad      Rot      Max-DP    RMS-DP
  5    -78.51200488  -0.0003308643  0.001054  0.001054  0.001109  0.000080
               *** Restarting incremental Fock matrix formation ***
  6    -78.51202923  -0.0000243513  0.000414  0.000796  0.000724  0.000054
  7    -78.51202976  -0.0000005334  0.000225  0.000184  0.000196  0.000009
                 **** Energy Check signals convergence ****
              ***Rediagonalizing the Fockian in SOSCF/NRSCF***

               *****************************************************
               *                     SUCCESS                       *
               *           SCF CONVERGED AFTER   8 CYCLES          *
               *****************************************************

Old exchange energy                            =     -2.930686028 Eh
New exchange energy                            =     -2.930688797 Eh
Exchange energy change after final integration =     -0.000002769 Eh
Total energy after final integration           =    -78.512033200 Eh
Final COS-X integration done in                =     0.165 sec

----------------
TOTAL SCF ENERGY
----------------

Total Energy       :          -78.51203320 Eh           -2136.42104 eV

Components:
Nuclear Repulsion  :           33.24755772 Eh             904.71204 eV
Electronic Energy  :         -111.75959092 Eh           -3041.13308 eV
One Electron Energy:         -170.10363351 Eh           -4628.75519 eV
Two Electron Energy:           58.34404259 Eh            1587.62211 eV
Max COSX asymmetry :            0.00000093 Eh               0.00003 eV

Virial components:
Potential Energy   :         -156.53774014 Eh           -4259.60846 eV
Kinetic Energy     :           78.02570694 Eh            2123.18743 eV
Virial Ratio       :            2.00623290


DFT components:
N(Alpha)           :        8.000007255423 electrons
N(Beta)            :        8.000007255423 electrons
N(Total)           :       16.000014510847 electrons
E(X)               :       -8.753553851355 Eh       
E(C)               :       -0.495553032972 Eh       
E(XC)              :       -9.249106884327 Eh       
DFET-embed. en.    :        0.000000000000 Eh       

---------------
SCF CONVERGENCE
---------------

  Last Energy change         ...   -6.6799e-07  Tolerance :   1.0000e-06
  Last MAX-Density change    ...    4.4409e-16  Tolerance :   1.0000e-05
  Last RMS-Density change    ...    1.6843e-17  Tolerance :   1.0000e-06
  Last Orbital Gradient      ...    1.6770e-05  Tolerance :   5.0000e-05
  Last Orbital Rotation      ...    1.9405e-05  Tolerance :   5.0000e-05

             **** THE GBW FILE WAS UPDATED (r1_C2H4_sp_orca.gbw) ****
             **** DENSITY r1_C2H4_sp_orca.scfp WAS UPDATED ****
             **** ENERGY FILE WAS UPDATED (r1_C2H4_sp_orca.en.tmp) ****
             **** THE GBW FILE WAS UPDATED (r1_C2H4_sp_orca.gbw) ****
             **** DENSITY r1_C2H4_sp_orca.scfp WAS UPDATED ****
----------------
ORBITAL ENERGIES
----------------

  NO   OCC          E(Eh)            E(eV) 
   0   2.0000     -10.225479      -278.2494 
   1   2.0000     -10.224529      -278.2236 
   2   2.0000      -0.784188       -21.3388 
   3   2.0000      -0.595930       -16.2161 
   4   2.0000      -0.482818       -13.1381 
   5   2.0000      -0.434099       -11.8124 
   6   2.0000      -0.365578        -9.9479 
   7   2.0000      -0.289407        -7.8752 
   8   0.0000       0.003523         0.0959 
   9   0.0000       0.076580         2.0838 
  10   0.0000       0.098843         2.6897 
  11   0.0000       0.101318         2.7570 
  12   0.0000       0.162659         4.4262 
  13   0.0000       0.203520         5.5381 
  14   0.0000       0.221929         6.0390 
  15   0.0000       0.230583         6.2745 
  16   0.0000       0.230759         6.2793 
  17   0.0000       0.279055         7.5935 
  18   0.0000       0.323476         8.8022 
  19   0.0000       0.353271         9.6130 
  20   0.0000       0.427135        11.6229 
  21   0.0000       0.464812        12.6482 
  22   0.0000       0.467725        12.7274 
  23   0.0000       0.503977        13.7139 
  24   0.0000       0.548110        14.9148 
  25   0.0000       0.576697        15.6927 
  26   0.0000       0.636342        17.3158 
  27   0.0000       0.726833        19.7781 
  28   0.0000       0.779521        21.2119 
  29   0.0000       0.803588        21.8667 
  30   0.0000       0.896658        24.3993 
  31   0.0000       0.966583        26.3021 
  32   0.0000       1.069727        29.1088 
  33   0.0000       1.093426        29.7536 
  34   0.0000       1.116613        30.3846 
  35   0.0000       1.248533        33.9743 
  36   0.0000       1.331015        36.2187 
  37   0.0000       1.435914        39.0732 
  38   0.0000       1.551986        42.2317 
  39   0.0000       1.552229        42.2383 
  40   0.0000       1.609144        43.7870 
  41   0.0000       1.616634        43.9909 
  42   0.0000       1.705213        46.4012 
  43   0.0000       1.727465        47.0067 
  44   0.0000       1.754835        47.7515 
  45   0.0000       1.804461        49.1019 
  46   0.0000       1.811524        49.2941 
  47   0.0000       1.837781        50.0086 
  48   0.0000       2.029559        55.2271 
  49   0.0000       2.192686        59.6660 
  50   0.0000       2.246896        61.1412 
  51   0.0000       2.311076        62.8876 
  52   0.0000       2.353497        64.0419 
  53   0.0000       2.408511        65.5389 
  54   0.0000       2.418404        65.8081 
  55   0.0000       2.521151        68.6040 
  56   0.0000       2.604203        70.8640 
  57   0.0000       2.610432        71.0335 
  58   0.0000       2.626324        71.4659 
  59   0.0000       2.773556        75.4723 
  60   0.0000       2.838570        77.2414 
  61   0.0000       2.933937        79.8365 
  62   0.0000       2.944550        80.1253 
  63   0.0000       2.993898        81.4681 
  64   0.0000       3.046409        82.8970 
  65   0.0000       3.097227        84.2798 
  66   0.0000       3.136065        85.3367 
  67   0.0000       3.151964        85.7693 
  68   0.0000       3.169682        86.2514 
  69   0.0000       3.305111        89.9366 
  70   0.0000       3.369215        91.6810 
  71   0.0000       3.386253        92.1446 
  72   0.0000       3.421844        93.1131 
  73   0.0000       3.466677        94.3331 
  74   0.0000       3.629030        98.7509 
  75   0.0000       3.707686       100.8913 
  76   0.0000       4.084866       111.1549 
  77   0.0000       4.113652       111.9382 
  78   0.0000       4.195202       114.1573 
  79   0.0000       4.357989       118.5869 
  80   0.0000       4.404307       119.8473 
  81   0.0000       4.584794       124.7586 
  82   0.0000       4.611141       125.4755 
  83   0.0000       4.967091       135.1614 
  84   0.0000      21.986303       598.2777 
  85   0.0000      22.601892       615.0288 

                    ********************************
                    * MULLIKEN POPULATION ANALYSIS *
                    ********************************

-----------------------
MULLIKEN ATOMIC CHARGES
-----------------------
   0 C :   -0.253552
   1 C :   -0.253549
   2 H :    0.126772
   3 H :    0.126778
   4 H :    0.126772
   5 H :    0.126778
Sum of atomic charges:   -0.0000000

--------------------------------
MULLIKEN REDUCED ORBITAL CHARGES
--------------------------------
  0 C s       :     3.235847  s :     3.235847
      pz      :     0.986283  p :     2.965517
      px      :     0.975701
      py      :     1.003533
      dz2     :     0.002580  d :     0.047475
      dxz     :     0.013203
      dyz     :     0.003396
      dx2y2   :     0.010910
      dxy     :     0.017387
      f0      :     0.000946  f :     0.004713
      f+1     :     0.000335
      f-1     :     0.000230
      f+2     :     0.000753
      f-2     :     0.000765
      f+3     :     0.000968
      f-3     :     0.000716
  1 C s       :     3.235850  s :     3.235850
      pz      :     0.986282  p :     2.965511
      px      :     0.975696
      py      :     1.003533
      dz2     :     0.002580  d :     0.047475
      dxz     :     0.013203
      dyz     :     0.003396
      dx2y2   :     0.010909
      dxy     :     0.017388
      f0      :     0.000946  f :     0.004713
      f+1     :     0.000335
      f-1     :     0.000230
      f+2     :     0.000753
      f-2     :     0.000765
      f+3     :     0.000968
      f-3     :     0.000716
  2 H s       :     0.851575  s :     0.851575
      pz      :     0.006319  p :     0.021652
      px      :     0.008509
      py      :     0.006824
  3 H s       :     0.851567  s :     0.851567
      pz      :     0.005684  p :     0.021655
      px      :     0.004361
      py      :     0.011610
  4 H s       :     0.851576  s :     0.851576
      pz      :     0.006319  p :     0.021652
      px      :     0.008509
      py      :     0.006824
  5 H s       :     0.851567  s :     0.851567
      pz      :     0.005684  p :     0.021655
      px      :     0.004361
      py      :     0.011610


                     *******************************
                     * LOEWDIN POPULATION ANALYSIS *
                     *******************************

----------------------
LOEWDIN ATOMIC CHARGES
----------------------
   0 C :   -0.245286
   1 C :   -0.245287
   2 H :    0.122645
   3 H :    0.122642
   4 H :    0.122645
   5 H :    0.122641

-------------------------------
LOEWDIN REDUCED ORBITAL CHARGES
-------------------------------
  0 C s       :     2.875307  s :     2.875307
      pz      :     0.957921  p :     3.097607
      px      :     1.118051
      py      :     1.021636
      dz2     :     0.013877  d :     0.244673
      dxz     :     0.052811
      dyz     :     0.011664
      dx2y2   :     0.070030
      dxy     :     0.096292
      f0      :     0.003706  f :     0.027699
      f+1     :     0.002945
      f-1     :     0.000903
      f+2     :     0.004088
      f-2     :     0.002851
      f+3     :     0.007029
      f-3     :     0.006178
  1 C s       :     2.875307  s :     2.875307
      pz      :     0.957921  p :     3.097606
      px      :     1.118050
      py      :     1.021636
      dz2     :     0.013877  d :     0.244674
      dxz     :     0.052811
      dyz     :     0.011663
      dx2y2   :     0.070030
      dxy     :     0.096293
      f0      :     0.003706  f :     0.027699
      f+1     :     0.002945
      f-1     :     0.000903
      f+2     :     0.004088
      f-2     :     0.002851
      f+3     :     0.007029
      f-3     :     0.006178
  2 H s       :     0.816492  s :     0.816492
      pz      :     0.017746  p :     0.060863
      px      :     0.022293
      py      :     0.020824
  3 H s       :     0.816495  s :     0.816495
      pz      :     0.016248  p :     0.060863
      px      :     0.012512
      py      :     0.032103
  4 H s       :     0.816493  s :     0.816493
      pz      :     0.017746  p :     0.060863
      px      :     0.022293
      py      :     0.020824
  5 H s       :     0.816496  s :     0.816496
      pz      :     0.016248  p :     0.060863
      px      :     0.012512
      py      :     0.032103


                      *****************************
                      * MAYER POPULATION ANALYSIS *
                      *****************************

  NA   - Mulliken gross atomic population
  ZA   - Total nuclear charge
  QA   - Mulliken gross atomic charge
  VA   - Mayer's total valence
  BVA  - Mayer's bonded valence
  FA   - Mayer's free valence

  ATOM       NA         ZA         QA         VA         BVA        FA
  0 C      6.2536     6.0000    -0.2536     3.9336     3.9336    -0.0000
  1 C      6.2535     6.0000    -0.2535     3.9336     3.9336    -0.0000
  2 H      0.8732     1.0000     0.1268     0.9676     0.9676    -0.0000
  3 H      0.8732     1.0000     0.1268     0.9676     0.9676    -0.0000
  4 H      0.8732     1.0000     0.1268     0.9676     0.9676     0.0000
  5 H      0.8732     1.0000     0.1268     0.9676     0.9676     0.0000

  Mayer bond orders larger than 0.100000
B(  0-C ,  1-C ) :   2.0099 B(  0-C ,  2-H ) :   0.9550 B(  0-C ,  3-H ) :   0.9550 
B(  1-C ,  4-H ) :   0.9550 B(  1-C ,  5-H ) :   0.9550 


------------------
HIRSHFELD ANALYSIS
------------------

Total integrated alpha density =      8.000007256
Total integrated beta density  =      8.000007256

  ATOM     CHARGE      SPIN    
   0 C   -0.076341    0.000000
   1 C   -0.076341    0.000000
   2 H    0.038159    0.000000
   3 H    0.038175    0.000000
   4 H    0.038159    0.000000
   5 H    0.038175    0.000000

  TOTAL  -0.000015    0.000000

-------
TIMINGS
-------

Total SCF time: 0 days 0 hours 0 min 1 sec 

Total time                  ....       1.708 sec
Sum of individual times     ....       1.610 sec  ( 94.3%)

Fock matrix formation       ....       1.331 sec  ( 77.9%)
  Split-RI-J                ....       0.201 sec  ( 15.1% of F)
  Chain of spheres X        ....       0.834 sec  ( 62.6% of F)
  XC integration            ....       0.273 sec  ( 20.5% of F)
    Basis function eval.    ....       0.089 sec  ( 32.6% of XC)
    Density eval.           ....       0.050 sec  ( 18.2% of XC)
    XC-Functional eval.     ....       0.027 sec  ( 10.0% of XC)
    XC-Potential eval.      ....       0.063 sec  ( 22.9% of XC)
Diagonalization             ....       0.018 sec  (  1.1%)
Density matrix formation    ....       0.001 sec  (  0.1%)
Population analysis         ....       0.032 sec  (  1.9%)
Initial guess               ....       0.016 sec  (  0.9%)
Orbital Transformation      ....       0.000 sec  (  0.0%)
Orbital Orthonormalization  ....       0.000 sec  (  0.0%)
DIIS solution               ....       0.017 sec  (  1.0%)
SOSCF solution              ....       0.008 sec  (  0.4%)
Grid generation             ....       0.187 sec  ( 10.9%)

Maximum memory used throughout the entire SCF-calculation: 59.5 MB


-------------------------------------------------------------------------------
                          DFT DISPERSION CORRECTION                            
                                                                               
                              DFTD3 V3.1  Rev 1                                
                          USING Becke-Johnson damping                          
-------------------------------------------------------------------------------
The PBE0 functional is recognized
Active option DFTDOPT                   ...         4   

molecular C6(AA) [au] = 294.550063 


            DFT-D V3
 parameters
 s6 scaling factor         :     1.0000 
 a1 scaling factor         :     0.4145 
 s8 scaling factor         :     1.2177 
 a2 scaling factor         :     4.8593 
 ad hoc parameters k1-k3   :    16.0000     1.3333    -4.0000 

 Edisp/kcal,au: -1.192038574143  -0.001899634183 
 E6   /kcal   :  -0.781358308 
 E8   /kcal   :  -0.410680267 
 % E8         :  34.451927604 

-------------------------   ----------------
Dispersion correction           -0.001899634
-------------------------   ----------------


-------------------------   --------------------
FINAL SINGLE POINT ENERGY       -78.513932834435
-------------------------   --------------------


                            ***************************************
                            *     ORCA property calculations      *
                            ***************************************

                                    ---------------------
                                    Active property flags
                                    ---------------------
   (+) Dipole Moment


------------------------------------------------------------------------------
                       ORCA ELECTRIC PROPERTIES CALCULATION
------------------------------------------------------------------------------

Dipole Moment Calculation                       ... on
Quadrupole Moment Calculation                   ... off
Polarizability Calculation                      ... off
GBWName                                         ... r1_C2H4_sp_orca.gbw
Electron density                                ... r1_C2H4_sp_orca.scfp
The origin for moment calculation is the CENTER OF MASS  = (-0.000037, -0.000000 -0.000032)

-------------
DIPOLE MOMENT
-------------
                                X             Y             Z
Electronic contribution:     -0.00001       0.00000      -0.00000
Nuclear contribution   :      0.00002       0.00000       0.00000
                        -----------------------------------------
Total Dipole Moment    :      0.00000       0.00000       0.00000
                        -----------------------------------------
Magnitude (a.u.)       :      0.00000
Magnitude (Debye)      :      0.00000



--------------------
Rotational spectrum 
--------------------
 
Rotational constants in cm-1:     4.822547     1.001383     0.829202 
Rotational constants in MHz : 144576.315212 30020.705101 24858.860580 

 Dipole components along the rotational axes: 
x,y,z [a.u.] :     0.000002    -0.000000    -0.000000 
x,y,z [Debye]:     0.000005    -0.000000    -0.000000 

 

Timings for individual modules:

Sum of individual times         ...        2.498 sec (=   0.042 min)
GTO integral calculation        ...        0.459 sec (=   0.008 min)  18.4 %
SCF iterations                  ...        2.039 sec (=   0.034 min)  81.6 %
                             ****ORCA TERMINATED NORMALLY****
TOTAL RUN TIME: 0 days 0 hours 0 minutes 2 seconds 949 msec
