
                                 *****************
                                 * O   R   C   A *
                                 *****************

                                            #,                                       
                                            ###                                      
                                            ####                                     
                                            #####                                    
                                            ######                                   
                                           ########,                                 
                                     ,,################,,,,,                         
                               ,,#################################,,                 
                          ,,##########################################,,             
                       ,#########################################, ''#####,          
                    ,#############################################,,   '####,        
                  ,##################################################,,,,####,       
                ,###########''''           ''''###############################       
              ,#####''   ,,,,##########,,,,          '''####'''          '####       
            ,##' ,,,,###########################,,,                        '##       
           ' ,,###''''                  '''############,,,                           
         ,,##''                                '''############,,,,        ,,,,,,###''
      ,#''                                            '''#######################'''  
     '                                                          ''''####''''         
             ,#######,   #######,   ,#######,      ##                                
            ,#'     '#,  ##    ##  ,#'     '#,    #''#        ######   ,####,        
            ##       ##  ##   ,#'  ##            #'  '#       #        #'  '#        
            ##       ##  #######   ##           ,######,      #####,   #    #        
            '#,     ,#'  ##    ##  '#,     ,#' ,#      #,         ##   #,  ,#        
             '#######'   ##     ##  '#######'  #'      '#     #####' # '####'        



                  #######################################################
                  #                        -***-                        #
                  #          Department of theory and spectroscopy      #
                  #    Directorship and core code : Frank Neese         #
                  #        Max Planck Institute fuer Kohlenforschung    #
                  #                Kaiser Wilhelm Platz 1               #
                  #                 D-45470 Muelheim/Ruhr               #
                  #                      Germany                        #
                  #                                                     #
                  #                  All rights reserved                #
                  #                        -***-                        #
                  #######################################################


                         Program Version 5.0.4 -  RELEASE  -


 With contributions from (in alphabetic order):
   Daniel Aravena         : Magnetic Suceptibility
   Michael Atanasov       : Ab Initio Ligand Field Theory (pilot matlab implementation)
   Alexander A. Auer      : GIAO ZORA, VPT2 properties, NMR spectrum
   Ute Becker             : Parallelization
   Giovanni Bistoni       : ED, misc. LED, open-shell LED, HFLD
   Martin Brehm           : Molecular dynamics
   Dmytro Bykov           : SCF Hessian
   Vijay G. Chilkuri      : MRCI spin determinant printing, contributions to CSF-ICE
   Dipayan Datta          : RHF DLPNO-CCSD density
   Achintya Kumar Dutta   : EOM-CC, STEOM-CC
   Dmitry Ganyushin       : Spin-Orbit,Spin-Spin,Magnetic field MRCI
   Miquel Garcia          : C-PCM and meta-GGA Hessian, CC/C-PCM, Gaussian charge scheme
   Yang Guo               : DLPNO-NEVPT2, F12-NEVPT2, CIM, IAO-localization
   Andreas Hansen         : Spin unrestricted coupled pair/coupled cluster methods
   Benjamin Helmich-Paris : MC-RPA, TRAH-SCF, COSX integrals
   Lee Huntington         : MR-EOM, pCC
   Robert Izsak           : Overlap fitted RIJCOSX, COSX-SCS-MP3, EOM
   Marcus Kettner         : VPT2
   Christian Kollmar      : KDIIS, OOCD, Brueckner-CCSD(T), CCSD density, CASPT2, CASPT2-K
   Simone Kossmann        : Meta GGA functionals, TD-DFT gradient, OOMP2, MP2 Hessian
   Martin Krupicka        : Initial AUTO-CI
   Lucas Lang             : DCDCAS
   Marvin Lechner         : AUTO-CI (C++ implementation), FIC-MRCC
   Dagmar Lenk            : GEPOL surface, SMD
   Dimitrios Liakos       : Extrapolation schemes; Compound Job, initial MDCI parallelization
   Dimitrios Manganas     : Further ROCIS development; embedding schemes
   Dimitrios Pantazis     : SARC Basis sets
   Anastasios Papadopoulos: AUTO-CI, single reference methods and gradients
   Taras Petrenko         : DFT Hessian,TD-DFT gradient, ASA, ECA, R-Raman, ABS, FL, XAS/XES, NRVS
   Peter Pinski           : DLPNO-MP2, DLPNO-MP2 Gradient
   Christoph Reimann      : Effective Core Potentials
   Marius Retegan         : Local ZFS, SOC
   Christoph Riplinger    : Optimizer, TS searches, QM/MM, DLPNO-CCSD(T), (RO)-DLPNO pert. Triples
   Tobias Risthaus        : Range-separated hybrids, TD-DFT gradient, RPA, STAB
   Michael Roemelt        : Original ROCIS implementation
   Masaaki Saitow         : Open-shell DLPNO-CCSD energy and density
   Barbara Sandhoefer     : DKH picture change effects
   Avijit Sen             : IP-ROCIS
   Kantharuban Sivalingam : CASSCF convergence, NEVPT2, FIC-MRCI
   Bernardo de Souza      : ESD, SOC TD-DFT
   Georgi Stoychev        : AutoAux, RI-MP2 NMR, DLPNO-MP2 response
   Willem Van den Heuvel  : Paramagnetic NMR
   Boris Wezisla          : Elementary symmetry handling
   Frank Wennmohs         : Technical directorship


 We gratefully acknowledge several colleagues who have allowed us to
 interface, adapt or use parts of their codes:
   Stefan Grimme, W. Hujo, H. Kruse, P. Pracht,  : VdW corrections, initial TS optimization,
                  C. Bannwarth, S. Ehlert          DFT functionals, gCP, sTDA/sTD-DF
   Ed Valeev, F. Pavosevic, A. Kumar             : LibInt (2-el integral package), F12 methods
   Garnet Chan, S. Sharma, J. Yang, R. Olivares  : DMRG
   Ulf Ekstrom                                   : XCFun DFT Library
   Mihaly Kallay                                 : mrcc  (arbitrary order and MRCC methods)
   Jiri Pittner, Ondrej Demel                    : Mk-CCSD
   Frank Weinhold                                : gennbo (NPA and NBO analysis)
   Christopher J. Cramer and Donald G. Truhlar   : smd solvation model
   Lars Goerigk                                  : TD-DFT with DH, B97 family of functionals
   V. Asgeirsson, H. Jonsson                     : NEB implementation
   FAccTs GmbH                                   : IRC, NEB, NEB-TS, DLPNO-Multilevel, CI-OPT
                                                   MM, QMMM, 2- and 3-layer-ONIOM, Crystal-QMMM,
                                                   LR-CPCM, SF, NACMEs, symmetry and pop. for TD-DFT,
                                                   nearIR, NL-DFT gradient (VV10), updates on ESD,
                                                   ML-optimized integration grids
   S Lehtola, MJT Oliveira, MAL Marques          : LibXC Library
   Liviu Ungur et al                             : ANISO software


 Your calculation uses the libint2 library for the computation of 2-el integrals
 For citations please refer to: http://libint.valeyev.net

 Your ORCA version has been built with support for libXC version: 5.1.0
 For citations please refer to: https://tddft.org/programs/libxc/

 This ORCA versions uses:
   CBLAS   interface :  Fast vector & matrix operations
   LAPACKE interface :  Fast linear algebra routines
   SCALAPACK package :  Parallel linear algebra routines
   Shared memory     :  Shared parallel matrices
   BLAS/LAPACK       :  OpenBLAS 0.3.15  USE64BITINT DYNAMIC_ARCH NO_AFFINITY SkylakeX SINGLE_THREADED
        Core in use  :  SkylakeX
   Copyright (c) 2011-2014, The OpenBLAS Project


Your calculation utilizes the atom-pairwise dispersion correction
with the Becke-Johnson damping scheme (D3BJ)
Cite in your paper:
S.Grimme, S.Ehrlich, L.Goerigk, J Comput Chem, (2011), 32, 1456–1465 
S.Grimme, J.Antony, S.Ehrlich and H.Krieg, J.Chem.Phys., 132, (2010), 154104 
   

================================================================================

----- Orbital basis set information -----
Your calculation utilizes the basis: def2-SVP
   F. Weigend and R. Ahlrichs, Phys. Chem. Chem. Phys. 7, 3297 (2005).

----- AuxJ basis set information -----
Your calculation utilizes the auxiliary basis: def2/J
   F. Weigend, Phys. Chem. Chem. Phys. 8, 1057 (2006).

================================================================================
                                        WARNINGS
                       Please study these warnings very carefully!
================================================================================


WARNING: your system is open-shell and RHF/RKS was chosen
  ===> : WILL SWITCH to UHF/UKS


WARNING: Geometry Optimization
  ===> : Switching off AutoStart
         For restart on a previous wavefunction, please use MOREAD

INFO   : the flag for use of the SHARK integral package has been found!

================================================================================
                                       INPUT FILE
================================================================================
NAME = TS_vdwLSy_ll_ad_1-4_0-1_optts_orca.inp
|  1> ! OptTS Freq PBE0 RIJCOSX D3BJ def2-SVP def2/J  
|  2> %geom
|  3> Calc_Hess true
|  4> Recalc_Hess 20
|  5> Trust -0.1
|  6> MaxIter 100
|  7> end
|  8> %geom
|  9> modify_internal
| 10> { B 0 1 A } end
| 11> end
| 12> %geom
| 13> modify_internal
| 14> { B 1 4 A } end
| 15> end
| 16> %output 
| 17> xyzfile=True 
| 18> end 
| 19> %scf 
| 20> maxiter 250 
| 21> end
| 22> %output
| 23> Print[P_Hirshfeld] = 1
| 24> end
| 25> % maxcore
| 26> 4000
| 27> %pal nprocs 8
| 28> end
| 29> *xyz 0 2
| 30> O    2.62773258  -0.21265829   0.88115918 
| 31> O    0.92309664  -0.54115705   0.78443446 
| 32> C    0.58203605  -0.46003794  -0.57760826 
| 33> C   -0.73832347  -1.22148858  -0.41634668 
| 34> C   -1.09897324  -0.31372560   0.71759577 
| 35> C   -0.97412174   1.09719807   0.25595144 
| 36> C    0.11001371   0.97719723  -0.83811656 
| 37> H    2.73993936  -0.45141213   1.80225974 
| 38> H    1.36749128  -0.84156053  -1.22868512 
| 39> H   -0.59414010  -2.25655583  -0.12019201 
| 40> H   -1.40940879  -1.15761992  -1.27761415 
| 41> H   -1.57036445  -0.61473125   1.63457246 
| 42> H   -0.67367113   1.75962411   1.06731464 
| 43> H   -1.92294194   1.46925908  -0.14463068 
| 44> H    0.92326717   1.68408758  -0.69541849 
| 45> H   -0.29136192   1.08377107  -1.84468571 
| 46> *
| 47> 
| 48>                          ****END OF INPUT****
================================================================================

                       *****************************
                       * Geometry Optimization Run *
                       *****************************

Geometry optimization settings:
Update method            Update   .... Bofill
Choice of coordinates    CoordSys .... Z-matrix Internals
Initial Hessian          InHess   .... Almoef's Model

Convergence Tolerances:
Energy Change            TolE     ....  5.0000e-06 Eh
Max. Gradient            TolMAXG  ....  3.0000e-04 Eh/bohr
RMS Gradient             TolRMSG  ....  1.0000e-04 Eh/bohr
Max. Displacement        TolMAXD  ....  4.0000e-03 bohr
RMS Displacement         TolRMSD  ....  2.0000e-03 bohr
Strict Convergence                ....  False
------------------------------------------------------------------------------
                        ORCA OPTIMIZATION COORDINATE SETUP
------------------------------------------------------------------------------

The optimization will be done in new redundant internal coordinates
Making redundant internal coordinates   ...  (new redundants) Bond   1,  0 is already included
done
Following TS mode number                ...     0
Evaluating the initial hessian          ...  (Is done on the fly) done
Evaluating the coordinates              ...  done
Calculating the B-matrix                .... done
Calculating the G-matrix                .... done
Diagonalizing the G-matrix              .... done
The first mode is                       ....   47
The number of degrees of freedom        ....   42

    -----------------------------------------------------------------
                    Redundant Internal Coordinates


    -----------------------------------------------------------------
         Definition                    Initial Value    d2E/dq (diagonal element)
    -----------------------------------------------------------------
      1. B(O   1,O   0)                  1.7387         0.000000   
      2. B(C   2,O   1)                  1.4064         0.000000   
      3. B(C   3,C   2)                  1.5327         0.000000   
      4. B(C   4,C   3)                  1.4966         0.000000   
      5. B(C   4,O   1)                  2.0359         0.000000   
      6. B(C   5,C   4)                  1.4898         0.000000   
      7. B(C   6,C   5)                  1.5449         0.000000   
      8. B(C   6,C   2)                  1.5350         0.000000   
      9. B(H   7,O   0)                  0.9581         0.000000   
     10. B(H   8,C   2)                  1.0892         0.000000   
     11. B(H   9,C   3)                  1.0862         0.000000   
     12. B(H  10,C   3)                  1.0937         0.000000   
     13. B(H  11,C   4)                  1.0741         0.000000   
     14. B(H  12,C   5)                  1.0897         0.000000   
     15. B(H  13,C   5)                  1.0951         0.000000   
     16. B(H  14,C   6)                  1.0869         0.000000   
     17. B(H  15,C   6)                  1.0889         0.000000   
     18. A(O   1,O   0,H   7)           96.9623         0.000000   
     19. A(O   0,O   1,C   2)          106.3036         0.000000   
     20. A(O   1,C   2,H   8)          112.5696         0.000000   
     21. A(C   3,C   2,H   8)          120.6698         0.000000   
     22. A(O   1,C   2,C   6)          107.0331         0.000000   
     23. A(C   3,C   2,C   6)          102.5980         0.000000   
     24. A(O   1,C   2,C   3)           94.4941         0.000000   
     25. A(C   6,C   2,H   8)          116.6319         0.000000   
     26. A(C   2,C   3,H   9)          112.8144         0.000000   
     27. A(C   4,C   3,H   9)          113.7901         0.000000   
     28. A(C   4,C   3,H  10)          114.4159         0.000000   
     29. A(H   9,C   3,H  10)          110.5971         0.000000   
     30. A(C   2,C   3,C   4)           89.1965         0.000000   
     31. A(C   2,C   3,H  10)          114.6273         0.000000   
     32. A(C   5,C   4,H  11)          124.5234         0.000000   
     33. A(C   3,C   4,H  11)          125.6347         0.000000   
     34. A(C   3,C   4,C   5)          108.6302         0.000000   
     35. A(C   4,C   5,C   6)          101.8116         0.000000   
     36. A(H  12,C   5,H  13)          107.7423         0.000000   
     37. A(C   6,C   5,H  13)          112.0470         0.000000   
     38. A(C   4,C   5,H  13)          111.2552         0.000000   
     39. A(C   6,C   5,H  12)          112.3977         0.000000   
     40. A(C   4,C   5,H  12)          111.5994         0.000000   
     41. A(H  14,C   6,H  15)          109.4818         0.000000   
     42. A(C   5,C   6,H  15)          112.8532         0.000000   
     43. A(C   2,C   6,H  15)          111.2152         0.000000   
     44. A(C   5,C   6,H  14)          112.4305         0.000000   
     45. A(C   2,C   6,H  14)          110.8893         0.000000   
     46. A(C   2,C   6,C   5)           99.6908         0.000000   
     47. D(C   2,O   1,O   0,H   7)   -170.5374         0.000000   
     48. D(C   6,C   2,O   1,O   0)    -93.2352         0.000000   
     49. D(C   3,C   2,O   1,O   0)    162.1157         0.000000   
     50. D(H   8,C   2,O   1,O   0)     36.1878         0.000000   
     51. D(H  10,C   3,C   2,H   8)    -73.6313         0.000000   
     52. D(C   4,C   3,C   2,H   8)    169.7318         0.000000   
     53. D(C   4,C   3,C   2,C   6)    -58.4667         0.000000   
     54. D(H   9,C   3,C   2,H   8)     54.1520         0.000000   
     55. D(H  10,C   3,C   2,C   6)     58.1702         0.000000   
     56. D(H  10,C   3,C   2,O   1)    166.7510         0.000000   
     57. D(C   4,C   3,C   2,O   1)     50.1141         0.000000   
     58. D(H   9,C   3,C   2,O   1)    -65.4657         0.000000   
     59. D(H   9,C   3,C   2,C   6)   -174.0465         0.000000   
     60. D(C   5,C   4,C   3,H   9)    167.6381         0.000000   
     61. D(C   5,C   4,C   3,C   2)     52.9541         0.000000   
     62. D(H  11,C   4,C   3,H  10)    103.9598         0.000000   
     63. D(H  11,C   4,C   3,H   9)    -24.5279         0.000000   
     64. D(H  11,C   4,C   3,C   2)   -139.2119         0.000000   
     65. D(C   5,C   4,C   3,H  10)    -63.8743         0.000000   
     66. D(H  13,C   5,C   4,H  11)    -76.5801         0.000000   
     67. D(H  13,C   5,C   4,C   3)     91.4210         0.000000   
     68. D(H  12,C   5,C   4,H  11)     43.7963         0.000000   
     69. D(H  12,C   5,C   4,C   3)   -148.2026         0.000000   
     70. D(C   6,C   5,C   4,C   3)    -28.1053         0.000000   
     71. D(C   6,C   5,C   4,H  11)    163.8936         0.000000   
     72. D(H  14,C   6,C   2,C   3)    163.9103         0.000000   
     73. D(H  14,C   6,C   2,O   1)     65.1418         0.000000   
     74. D(C   5,C   6,C   2,H   8)    179.4273         0.000000   
     75. D(C   5,C   6,C   2,C   3)     45.2581         0.000000   
     76. D(H  14,C   6,C   2,H   8)    -61.9205         0.000000   
     77. D(C   5,C   6,C   2,O   1)    -53.5104         0.000000   
     78. D(H  15,C   6,C   5,H  12)   -133.1302         0.000000   
     79. D(H  15,C   6,C   5,C   4)    107.3353         0.000000   
     80. D(H  14,C   6,C   5,H  13)    112.8084         0.000000   
     81. D(H  14,C   6,C   5,H  12)     -8.6921         0.000000   
     82. D(H  14,C   6,C   5,C   4)   -128.2267         0.000000   
     83. D(C   2,C   6,C   5,H  13)   -129.6868         0.000000   
     84. D(C   2,C   6,C   5,H  12)    108.8127         0.000000   
     85. D(C   2,C   6,C   5,C   4)    -10.7218         0.000000   
     86. D(H  15,C   6,C   2,H   8)     60.1573         0.000000   
     87. D(H  15,C   6,C   2,C   3)    -74.0119         0.000000   
     88. D(H  15,C   6,C   5,H  13)    -11.6296         0.000000   
     89. D(H  15,C   6,C   2,O   1)   -172.7803         0.000000   
    -----------------------------------------------------------------

Number of atoms                         .... 16
Number of degrees of freedom            .... 89

         *************************************************************
         *                GEOMETRY OPTIMIZATION CYCLE   1            *
         *************************************************************
---------------------------------
CARTESIAN COORDINATES (ANGSTROEM)
---------------------------------
  O      2.627733   -0.212658    0.881159
  O      0.923097   -0.541157    0.784434
  C      0.582036   -0.460038   -0.577608
  C     -0.738323   -1.221489   -0.416347
  C     -1.098973   -0.313726    0.717596
  C     -0.974122    1.097198    0.255951
  C      0.110014    0.977197   -0.838117
  H      2.739939   -0.451412    1.802260
  H      1.367491   -0.841561   -1.228685
  H     -0.594140   -2.256556   -0.120192
  H     -1.409409   -1.157620   -1.277614
  H     -1.570364   -0.614731    1.634572
  H     -0.673671    1.759624    1.067315
  H     -1.922942    1.469259   -0.144631
  H      0.923267    1.684088   -0.695418
  H     -0.291362    1.083771   -1.844686

----------------------------
CARTESIAN COORDINATES (A.U.)
----------------------------
  NO LB      ZA    FRAG     MASS         X           Y           Z
   0 O     8.0000    0    15.999    4.965695   -0.401866    1.665150
   1 O     8.0000    0    15.999    1.744400   -1.022639    1.482366
   2 C     6.0000    0    12.011    1.099889   -0.869346   -1.091521
   3 C     6.0000    0    12.011   -1.395229   -2.308279   -0.786781
   4 C     6.0000    0    12.011   -2.076758   -0.592855    1.356059
   5 C     6.0000    0    12.011   -1.840823    2.073404    0.483678
   6 C     6.0000    0    12.011    0.207896    1.846635   -1.583811
   7 H     1.0000    0     1.008    5.177735   -0.853045    3.405777
   8 H     1.0000    0     1.008    2.584184   -1.590319   -2.321878
   9 H     1.0000    0     1.008   -1.122762   -4.264273   -0.227130
  10 H     1.0000    0     1.008   -2.663397   -2.187585   -2.414341
  11 H     1.0000    0     1.008   -2.967559   -1.161674    3.088894
  12 H     1.0000    0     1.008   -1.273054    3.325208    2.016932
  13 H     1.0000    0     1.008   -3.633834    2.776497   -0.273312
  14 H     1.0000    0     1.008    1.744722    3.182464   -1.314150
  15 H     1.0000    0     1.008   -0.550594    2.048031   -3.485951

--------------------------------
INTERNAL COORDINATES (ANGSTROEM)
--------------------------------
 O      0   0   0     0.000000000000     0.00000000     0.00000000
 O      1   0   0     1.738692265676     0.00000000     0.00000000
 C      2   1   0     1.406436279098   106.30363012     0.00000000
 C      3   2   1     1.532697503226    94.49412286   162.11571000
 C      4   3   2     1.496638688653    89.19649714    50.11409788
 C      5   4   3     1.489768098410   108.63016950    52.95405983
 C      3   2   1     1.535029184645   107.03307056   266.76483286
 H      1   2   3     0.958133601971    96.96231747   189.46255978
 H      3   2   1     1.089220125889   112.56956687    36.18777773
 H      4   3   2     1.086213903782   112.81443668   294.53433915
 H      4   3   2     1.093716767417   114.62725005   166.75098494
 H      5   4   3     1.074085808584   125.63467095   220.78813587
 H      6   5   4     1.089673836445   111.59938916   211.79739427
 H      6   5   4     1.095059451333   111.25522589    91.42104792
 H      7   3   2     1.086939693040   110.88927209    65.14184030
 H      7   3   2     1.088871816819   111.21515479   187.21966154

---------------------------
INTERNAL COORDINATES (A.U.)
---------------------------
 O      0   0   0     0.000000000000     0.00000000     0.00000000
 O      1   0   0     3.285652213294     0.00000000     0.00000000
 C      2   1   0     2.657779392307   106.30363012     0.00000000
 C      3   2   1     2.896378527242    94.49412286   162.11571000
 C      4   3   2     2.828237242984    89.19649714    50.11409788
 C      5   4   3     2.815253709047   108.63016950    52.95405983
 C      3   2   1     2.900784766556   107.03307056   266.76483286
 H      1   2   3     1.810610107432    96.96231747   189.46255978
 H      3   2   1     2.058327737486   112.56956687    36.18777773
 H      4   3   2     2.052646801006   112.81443668   294.53433915
 H      4   3   2     2.066825158496   114.62725005   166.75098494
 H      5   4   3     2.029728022554   125.63467095   220.78813587
 H      6   5   4     2.059185126181   111.59938916   211.79739427
 H      6   5   4     2.069362463382   111.25522589    91.42104792
 H      7   3   2     2.054018343935   110.88927209    65.14184030
 H      7   3   2     2.057669528733   111.21515479   187.21966154

---------------------
BASIS SET INFORMATION
---------------------
There are 3 groups of distinct atoms

 Group   1 Type O   : 7s4p1d contracted to 3s2p1d pattern {511/31/1}
 Group   2 Type C   : 7s4p1d contracted to 3s2p1d pattern {511/31/1}
 Group   3 Type H   : 4s1p contracted to 2s1p pattern {31/1}

Atom   0O    basis set group =>   1
Atom   1O    basis set group =>   1
Atom   2C    basis set group =>   2
Atom   3C    basis set group =>   2
Atom   4C    basis set group =>   2
Atom   5C    basis set group =>   2
Atom   6C    basis set group =>   2
Atom   7H    basis set group =>   3
Atom   8H    basis set group =>   3
Atom   9H    basis set group =>   3
Atom  10H    basis set group =>   3
Atom  11H    basis set group =>   3
Atom  12H    basis set group =>   3
Atom  13H    basis set group =>   3
Atom  14H    basis set group =>   3
Atom  15H    basis set group =>   3
---------------------------------
AUXILIARY/J BASIS SET INFORMATION
---------------------------------
There are 3 groups of distinct atoms

 Group   1 Type O   : 12s5p4d2f1g contracted to 6s4p3d1f1g pattern {711111/2111/211/2/1}
 Group   2 Type C   : 12s5p4d2f1g contracted to 6s4p3d1f1g pattern {711111/2111/211/2/1}
 Group   3 Type H   : 5s2p1d contracted to 3s1p1d pattern {311/2/1}

Atom   0O    basis set group =>   1
Atom   1O    basis set group =>   1
Atom   2C    basis set group =>   2
Atom   3C    basis set group =>   2
Atom   4C    basis set group =>   2
Atom   5C    basis set group =>   2
Atom   6C    basis set group =>   2
Atom   7H    basis set group =>   3
Atom   8H    basis set group =>   3
Atom   9H    basis set group =>   3
Atom  10H    basis set group =>   3
Atom  11H    basis set group =>   3
Atom  12H    basis set group =>   3
Atom  13H    basis set group =>   3
Atom  14H    basis set group =>   3
Atom  15H    basis set group =>   3


           ************************************************************
           *        Program running with 8 parallel MPI-processes     *
           *              working on a common directory               *
           ************************************************************
------------------------------------------------------------------------------
                           ORCA GTO INTEGRAL CALCULATION
                           -- RI-GTO INTEGRALS CHOSEN --
------------------------------------------------------------------------------
------------------------------------------------------------------------------
                   ___                                                        
                  /   \      - P O W E R E D   B Y -                         
                 /     \                                                     
                 |  |  |   _    _      __       _____    __    __             
                 |  |  |  | |  | |    /  \     |  _  \  |  |  /  |          
                  \  \/   | |  | |   /    \    | | | |  |  | /  /          
                 / \  \   | |__| |  /  /\  \   | |_| |  |  |/  /          
                |  |  |   |  __  | /  /__\  \  |    /   |      \           
                |  |  |   | |  | | |   __   |  |    \   |  |\   \          
                \     /   | |  | | |  |  |  |  | |\  \  |  | \   \       
                 \___/    |_|  |_| |__|  |__|  |_| \__\ |__|  \__/        
                                                                              
                      - O R C A' S   B I G   F R I E N D -                    
                                      &                                       
                       - I N T E G R A L  F E E D E R -                       
                                                                              
 v1 FN, 2020, v2 2021                                                         
------------------------------------------------------------------------------


Reading SHARK input file TS_vdwLSy_ll_ad_1-4_0-1_optts_orca.SHARKINP.tmp ... ok
----------------------
SHARK INTEGRAL PACKAGE
----------------------

Number of atoms                             ...     16
Number of basis functions                   ...    143
Number of shells                            ...     69
Maximum angular momentum                    ...      2
Integral batch strategy                     ... SHARK/LIBINT Hybrid
RI-J (if used) integral strategy            ... SPLIT-RIJ (Revised 2003 algorithm where possible)
Printlevel                                  ...      1
Contraction scheme used                     ... SEGMENTED contraction
Coulomb Range Separation                    ... NOT USED
Exchange Range Separation                   ... NOT USED
Finite Nucleus Model                        ... NOT USED
Auxiliary Coulomb fitting basis             ... AVAILABLE
   # of basis functions in Aux-J            ...    442
   # of shells in Aux-J                     ...    150
   Maximum angular momentum in Aux-J        ...      4
Auxiliary J/K fitting basis                 ... NOT available
Auxiliary Correlation fitting basis         ... NOT available
Auxiliary 'external' fitting basis          ... NOT available
Integral threshold                          ...     2.500000e-11
Primitive cut-off                           ...     2.500000e-12
Primitive pair pre-selection threshold      ...     2.500000e-12

Calculating pre-screening integrals         ... done (  0.0 sec) Dimension = 69
Organizing shell pair data                  ... done (  0.0 sec)
Shell pair information
Total number of shell pairs                 ...      2415
Shell pairs after pre-screening             ...      2358
Total number of primitive shell pairs       ...      8503
Primitive shell pairs kept                  ...      6364
          la=0 lb=0:    757 shell pairs
          la=1 lb=0:    877 shell pairs
          la=1 lb=1:    271 shell pairs
          la=2 lb=0:    266 shell pairs
          la=2 lb=1:    159 shell pairs
          la=2 lb=2:     28 shell pairs

Calculating one electron integrals          ... done (  0.0 sec)
Calculating RI/J V-Matrix + Cholesky decomp.... done (  0.0 sec)
Calculating Nuclear repulsion               ... done (  0.0 sec) ENN=    324.537493654081 Eh

SHARK setup successfully completed in   0.1 seconds

Maximum memory used throughout the entire GTOINT-calculation: 11.1 MB


           ************************************************************
           *        Program running with 8 parallel MPI-processes     *
           *              working on a common directory               *
           ************************************************************
-------------------------------------------------------------------------------
                                 ORCA SCF
-------------------------------------------------------------------------------

------------
SCF SETTINGS
------------
Hamiltonian:
 Density Functional     Method          .... DFT(GTOs)
 Exchange Functional    Exchange        .... PBE
   PBE kappa parameter   XKappa         ....  0.804000
   PBE mue parameter    XMuePBE         ....  0.219520
 Correlation Functional Correlation     .... PBE
   PBE beta parameter  CBetaPBE         ....  0.066725
 LDA part of GGA corr.  LDAOpt          .... PW91-LDA
 Gradients option       PostSCFGGA      .... off
 Hybrid DFT is turned on
   Fraction HF Exchange ScalHFX         ....  0.250000
   Scaling of DF-GGA-X  ScalDFX         ....  0.750000
   Scaling of DF-GGA-C  ScalDFC         ....  1.000000
   Scaling of DF-LDA-C  ScalLDAC        ....  1.000000
   Perturbative correction              ....  0.000000
   Density functional embedding theory  .... OFF
   NL short-range parameter             ....  6.900000
 RI-approximation to the Coulomb term is turned on
   Number of AuxJ basis functions       .... 442
   RIJ-COSX (HFX calculated with COS-X)).... on


General Settings:
 Integral files         IntName         .... TS_vdwLSy_ll_ad_1-4_0-1_optts_orca
 Hartree-Fock type      HFTyp           .... UHF
 Total Charge           Charge          ....    0
 Multiplicity           Mult            ....    2
 Number of Electrons    NEL             ....   55
 Basis Dimension        Dim             ....  143
 Nuclear Repulsion      ENuc            ....    324.5374936541 Eh

Convergence Acceleration:
 DIIS                   CNVDIIS         .... on
   Start iteration      DIISMaxIt       ....    12
   Startup error        DIISStart       ....  0.200000
   # of expansion vecs  DIISMaxEq       ....     5
   Bias factor          DIISBfac        ....   1.050
   Max. coefficient     DIISMaxC        ....  10.000
 Trust-Rad. Augm. Hess. CNVTRAH         .... auto
   Auto Start mean grad. ratio tolernc. ....  1.125000
   Auto Start start iteration           ....    20
   Auto Start num. interpolation iter.  ....    10
   Max. Number of Micro iterations      ....    16
   Max. Number of Macro iterations      .... Maxiter - #DIIS iter
   Number of Davidson start vectors     ....     2
   Converg. threshold I  (grad. norm)   ....   1.000e-05
   Converg. threshold II (energy diff.) ....   1.000e-08
   Grad. Scal. Fac. for Micro threshold ....   0.100
   Minimum threshold for Micro iter.    ....   0.010
   NR start threshold (gradient norm)   ....   0.001
   Initial trust radius                 ....   0.400
   Minimum AH scaling param. (alpha)    ....   1.000
   Maximum AH scaling param. (alpha)    .... 1000.000
   Orbital update algorithm             .... Taylor
   White noise on init. David. guess    .... on
   Maximum white noise                  ....   0.010
   Quad. conv. algorithm                .... NR
 SOSCF                  CNVSOSCF        .... off
 Level Shifting         CNVShift        .... on
   Level shift para.    LevelShift      ....    0.2500
   Turn off err/grad.   ShiftErr        ....    0.0010
 Zerner damping         CNVZerner       .... off
 Static damping         CNVDamp         .... on
   Fraction old density DampFac         ....    0.7000
   Max. Damping (<1)    DampMax         ....    0.9800
   Min. Damping (>=0)   DampMin         ....    0.0000
   Turn off err/grad.   DampErr         ....    0.1000
 Fernandez-Rico         CNVRico         .... off

SCF Procedure:
 Maximum # iterations   MaxIter         ....   250
 SCF integral mode      SCFMode         .... Direct
   Integral package                     .... SHARK and LIBINT hybrid scheme
 Reset frequency        DirectResetFreq ....    20
 Integral Threshold     Thresh          ....  2.500e-11 Eh
 Primitive CutOff       TCut            ....  2.500e-12 Eh

Convergence Tolerance:
 Convergence Check Mode ConvCheckMode   .... Total+1el-Energy
 Convergence forced     ConvForced      .... 0
 Energy Change          TolE            ....  1.000e-08 Eh
 1-El. energy change                    ....  1.000e-05 Eh
 DIIS Error             TolErr          ....  5.000e-07


Diagonalization of the overlap matrix:
Smallest eigenvalue                        ... 6.460e-04
Time for diagonalization                   ...    0.003 sec
Threshold for overlap eigenvalues          ... 1.000e-08
Number of eigenvalues below threshold      ... 0
Time for construction of square roots      ...    0.001 sec
Total time needed                          ...    0.005 sec

Time for model grid setup =    0.046 sec

------------------------------
INITIAL GUESS: MODEL POTENTIAL
------------------------------
Loading Hartree-Fock densities                     ... done
Calculating cut-offs                               ... done
Initializing the effective Hamiltonian             ... done
Setting up the integral package (SHARK)            ... done
Starting the Coulomb interaction                   ... done (   0.0 sec)
Reading the grid                                   ... done
Mapping shells                                     ... done
Starting the XC term evaluation                    ... done (   0.0 sec)
  promolecular density results
     # of electrons  =     54.995356999
     EX              =    -44.471514214
     EC              =     -1.824743374
     EX+EC           =    -46.296257588
Transforming the Hamiltonian                       ... done (   0.0 sec)
Diagonalizing the Hamiltonian                      ... done (   0.0 sec)
Back transforming the eigenvectors                 ... done (   0.0 sec)
Now organizing SCF variables                       ... done
                      ------------------
                      INITIAL GUESS DONE (   0.1 sec)
                      ------------------
-------------------
DFT GRID GENERATION
-------------------

General Integration Accuracy     IntAcc      ... 4.388
Radial Grid Type                 RadialGrid  ... OptM3 with GC (2021)
Angular Grid (max. ang.)         AngularGrid ... 4 (Lebedev-302)
Angular grid pruning method      GridPruning ... 4 (adaptive)
Weight generation scheme         WeightScheme... Becke
Basis function cutoff            BFCut       ... 1.0000e-11
Integration weight cutoff        WCut        ... 1.0000e-14
Angular grids for H and He will be reduced by one unit
Partially contracted basis set               ... off
Rotationally invariant grid construction     ... off

Total number of grid points                  ...    71033
Total number of batches                      ...     1119
Average number of points per batch           ...       63
Average number of grid points per atom       ...     4440
Time for grid setup =    0.264 sec

--------------------
COSX GRID GENERATION
--------------------

GRIDX 1
-------
General Integration Accuracy     IntAcc      ... 3.816
Radial Grid Type                 RadialGrid  ... OptM3 with GC (2021)
Angular Grid (max. ang.)         AngularGrid ... 1 (Lebedev-50)
Angular grid pruning method      GridPruning ... 4 (adaptive)
Weight generation scheme         WeightScheme... Becke
Basis function cutoff            BFCut       ... 1.0000e-11
Integration weight cutoff        WCut        ... 1.0000e-14
Angular grids for H and He will be reduced by one unit
Partially contracted basis set               ... on
Rotationally invariant grid construction     ... off

Total number of grid points                  ...     9093
Total number of batches                      ...      151
Average number of points per batch           ...       60
Average number of grid points per atom       ...      568
UseSFitting                                  ... on

GRIDX 2
-------
General Integration Accuracy     IntAcc      ... 4.020
Radial Grid Type                 RadialGrid  ... OptM3 with GC (2021)
Angular Grid (max. ang.)         AngularGrid ... 2 (Lebedev-110)
Angular grid pruning method      GridPruning ... 4 (adaptive)
Weight generation scheme         WeightScheme... Becke
Basis function cutoff            BFCut       ... 1.0000e-11
Integration weight cutoff        WCut        ... 1.0000e-14
Angular grids for H and He will be reduced by one unit
Partially contracted basis set               ... on
Rotationally invariant grid construction     ... off

Total number of grid points                  ...    19417
Total number of batches                      ...      312
Average number of points per batch           ...       62
Average number of grid points per atom       ...     1214
UseSFitting                                  ... on

GRIDX 3
-------
General Integration Accuracy     IntAcc      ... 4.338
Radial Grid Type                 RadialGrid  ... OptM3 with GC (2021)
Angular Grid (max. ang.)         AngularGrid ... 3 (Lebedev-194)
Angular grid pruning method      GridPruning ... 4 (adaptive)
Weight generation scheme         WeightScheme... Becke
Basis function cutoff            BFCut       ... 1.0000e-11
Integration weight cutoff        WCut        ... 1.0000e-14
Angular grids for H and He will be reduced by one unit
Partially contracted basis set               ... on
Rotationally invariant grid construction     ... off

Total number of grid points                  ...    42473
Total number of batches                      ...      671
Average number of points per batch           ...       63
Average number of grid points per atom       ...     2655
UseSFitting                                  ... on

Time for X-Grid setup             =    0.194 sec

--------------
SCF ITERATIONS
--------------
ITER       Energy         Delta-E        Max-DP      RMS-DP      [F,P]     Damp
               ***  Starting incremental Fock matrix formation  ***
  0   -345.3612232402   0.000000000000 0.04962672  0.00133650  0.1321589 0.7000
  1   -345.4464558739  -0.085232633618 0.03020217  0.00090508  0.0496835 0.7000
                               ***Turning on DIIS***
  2   -345.4783828767  -0.031927002811 0.05056802  0.00154898  0.0148555 0.0000
  3   -345.5304980257  -0.052115149042 0.03005866  0.00070124  0.0325293 0.0000
  4   -345.5436284259  -0.013130400246 0.00983886  0.00025551  0.0144507 0.0000
  5   -345.5451539348  -0.001525508889 0.00906608  0.00013899  0.0092428 0.0000
  6   -345.5458786148  -0.000724679951 0.01002224  0.00014815  0.0060206 0.0000
  7   -345.5464318298  -0.000553215017 0.00783223  0.00010069  0.0050183 0.0000
  8   -345.5467277000  -0.000295870241 0.00736741  0.00011075  0.0035995 0.0000
  9   -345.5469565358  -0.000228835771 0.00396757  0.00006554  0.0016406 0.0000
 10   -345.5470410255  -0.000084489636 0.00442697  0.00007855  0.0009756 0.0000
               *** Restarting incremental Fock matrix formation ***
                                   *** Resetting DIIS ***
 11   -345.5471127867  -0.000071761281 0.00166920  0.00002749  0.0007027 0.0000
 12   -345.5471114868   0.000001299980 0.00043962  0.00001005  0.0013186 0.0000
 13   -345.5471184593  -0.000006972540 0.00049389  0.00001197  0.0005399 0.0000
 14   -345.5471207914  -0.000002332072 0.00043853  0.00000980  0.0001865 0.0000
 15   -345.5471220371  -0.000001245688 0.00052621  0.00000926  0.0002366 0.0000
 16   -345.5471230206  -0.000000983515 0.00033261  0.00000593  0.0000980 0.0000
 17   -345.5471232536  -0.000000233066 0.00008624  0.00000144  0.0000260 0.0000
 18   -345.5471232722  -0.000000018519 0.00005177  0.00000080  0.0000172 0.0000
 19   -345.5471232867  -0.000000014503 0.00004847  0.00000073  0.0000108 0.0000
 20   -345.5471232850   0.000000001641 0.00002254  0.00000034  0.0000051 0.0000
 21   -345.5471232876  -0.000000002619 0.00001320  0.00000022  0.0000035 0.0000
 22   -345.5471232864   0.000000001226 0.00000610  0.00000010  0.0000025 0.0000
 23   -345.5471232839   0.000000002542 0.00000277  0.00000004  0.0000018 0.0000
 24   -345.5471232833   0.000000000537 0.00000217  0.00000004  0.0000013 0.0000
                 **** Energy Check signals convergence ****

               *****************************************************
               *                     SUCCESS                       *
               *           SCF CONVERGED AFTER  25 CYCLES          *
               *****************************************************

Old exchange energy                            =    -11.352163687 Eh
New exchange energy                            =    -11.352149344 Eh
Exchange energy change after final integration =      0.000014343 Eh
Total energy after final integration           =   -345.547108944 Eh
Final COS-X integration done in                =     0.797 sec

----------------
TOTAL SCF ENERGY
----------------

Total Energy       :         -345.54710894 Eh           -9402.81486 eV

Components:
Nuclear Repulsion  :          324.53749365 Eh            8831.11417 eV
Electronic Energy  :         -670.08460260 Eh          -18233.92903 eV
One Electron Energy:        -1113.84760426 Eh          -30309.33421 eV
Two Electron Energy:          443.76300166 Eh           12075.40518 eV
Max COSX asymmetry :            0.00000083 Eh               0.00002 eV

Virial components:
Potential Energy   :         -688.18181139 Eh          -18726.37912 eV
Kinetic Energy     :          342.63470244 Eh            9323.56425 eV
Virial Ratio       :            2.00850003


DFT components:
N(Alpha)           :       27.999943353287 electrons
N(Beta)            :       26.999949098290 electrons
N(Total)           :       54.999892451578 electrons
E(X)               :      -33.988366897796 Eh       
E(C)               :       -1.835815991278 Eh       
E(XC)              :      -35.824182889074 Eh       
DFET-embed. en.    :        0.000000000000 Eh       

---------------
SCF CONVERGENCE
---------------

  Last Energy change         ...   -3.6916e-09  Tolerance :   1.0000e-08
  Last MAX-Density change    ...    0.0000e+00  Tolerance :   1.0000e-07
  Last RMS-Density change    ...    0.0000e+00  Tolerance :   5.0000e-09
  Last DIIS Error            ...    1.0058e-06  Tolerance :   5.0000e-07

             **** THE GBW FILE WAS UPDATED (TS_vdwLSy_ll_ad_1-4_0-1_optts_orca.gbw) ****
             **** DENSITY TS_vdwLSy_ll_ad_1-4_0-1_optts_orca.scfp WAS UPDATED ****
             **** ENERGY FILE WAS UPDATED (TS_vdwLSy_ll_ad_1-4_0-1_optts_orca.en.tmp) ****
----------------------
UHF SPIN CONTAMINATION
----------------------

Warning: in a DFT calculation there is little theoretical justification to 
         calculate <S**2> as in Hartree-Fock theory. We will do it anyways
         but you should keep in mind that the values have only limited relevance

Expectation value of <S**2>     :     0.826588
Ideal value S*(S+1) for S=0.5   :     0.750000
Deviation                       :     0.076588

             **** THE GBW FILE WAS UPDATED (TS_vdwLSy_ll_ad_1-4_0-1_optts_orca.gbw) ****
             **** DENSITY TS_vdwLSy_ll_ad_1-4_0-1_optts_orca.scfp WAS UPDATED ****
----------------
ORBITAL ENERGIES
----------------
                 SPIN UP ORBITALS
  NO   OCC          E(Eh)            E(eV) 
   0   1.0000     -19.240923      -523.5721 
   1   1.0000     -19.206824      -522.6443 
   2   1.0000     -10.280572      -279.7486 
   3   1.0000     -10.279707      -279.7251 
   4   1.0000     -10.241103      -278.6746 
   5   1.0000     -10.238811      -278.6122 
   6   1.0000     -10.227240      -278.2974 
   7   1.0000      -1.048025       -28.5182 
   8   1.0000      -0.951462       -25.8906 
   9   1.0000      -0.843098       -22.9419 
  10   1.0000      -0.740690       -20.1552 
  11   1.0000      -0.716400       -19.4942 
  12   1.0000      -0.581506       -15.8236 
  13   1.0000      -0.574386       -15.6298 
  14   1.0000      -0.541031       -14.7222 
  15   1.0000      -0.502400       -13.6710 
  16   1.0000      -0.474687       -12.9169 
  17   1.0000      -0.452006       -12.2997 
  18   1.0000      -0.417597       -11.3634 
  19   1.0000      -0.399610       -10.8739 
  20   1.0000      -0.386902       -10.5282 
  21   1.0000      -0.383631       -10.4391 
  22   1.0000      -0.369413       -10.0522 
  23   1.0000      -0.348740        -9.4897 
  24   1.0000      -0.344632        -9.3779 
  25   1.0000      -0.313346        -8.5266 
  26   1.0000      -0.258585        -7.0365 
  27   1.0000      -0.202304        -5.5050 
  28   0.0000      -0.039800        -1.0830 
  29   0.0000       0.069677         1.8960 
  30   0.0000       0.094851         2.5810 
  31   0.0000       0.113440         3.0869 
  32   0.0000       0.114110         3.1051 
  33   0.0000       0.125806         3.4234 
  34   0.0000       0.138135         3.7588 
  35   0.0000       0.147134         4.0037 
  36   0.0000       0.156892         4.2692 
  37   0.0000       0.175255         4.7689 
  38   0.0000       0.189400         5.1538 
  39   0.0000       0.202118         5.4999 
  40   0.0000       0.212798         5.7905 
  41   0.0000       0.251877         6.8539 
  42   0.0000       0.261255         7.1091 
  43   0.0000       0.311867         8.4863 
  44   0.0000       0.429935        11.6991 
  45   0.0000       0.458770        12.4838 
  46   0.0000       0.476523        12.9668 
  47   0.0000       0.484063        13.1720 
  48   0.0000       0.504811        13.7366 
  49   0.0000       0.529772        14.4158 
  50   0.0000       0.563921        15.3451 
  51   0.0000       0.579739        15.7755 
  52   0.0000       0.610651        16.6167 
  53   0.0000       0.615844        16.7580 
  54   0.0000       0.634995        17.2791 
  55   0.0000       0.640934        17.4407 
  56   0.0000       0.650809        17.7094 
  57   0.0000       0.661202        17.9922 
  58   0.0000       0.672283        18.2938 
  59   0.0000       0.685416        18.6511 
  60   0.0000       0.691835        18.8258 
  61   0.0000       0.697253        18.9732 
  62   0.0000       0.705225        19.1901 
  63   0.0000       0.712291        19.3824 
  64   0.0000       0.728060        19.8115 
  65   0.0000       0.739558        20.1244 
  66   0.0000       0.770031        20.9536 
  67   0.0000       0.790419        21.5084 
  68   0.0000       0.867138        23.5960 
  69   0.0000       0.933732        25.4081 
  70   0.0000       0.953644        25.9500 
  71   0.0000       0.986997        26.8575 
  72   0.0000       0.994228        27.0543 
  73   0.0000       1.047787        28.5117 
  74   0.0000       1.058153        28.7938 
  75   0.0000       1.093158        29.7464 
  76   0.0000       1.140973        31.0474 
  77   0.0000       1.205187        32.7948 
  78   0.0000       1.245973        33.9046 
  79   0.0000       1.293075        35.1864 
  80   0.0000       1.348869        36.7046 
  81   0.0000       1.361209        37.0404 
  82   0.0000       1.417061        38.5602 
  83   0.0000       1.477739        40.2113 
  84   0.0000       1.492432        40.6111 
  85   0.0000       1.536261        41.8038 
  86   0.0000       1.548697        42.1422 
  87   0.0000       1.568166        42.6720 
  88   0.0000       1.609288        43.7910 
  89   0.0000       1.625038        44.2195 
  90   0.0000       1.662772        45.2463 
  91   0.0000       1.686773        45.8994 
  92   0.0000       1.690341        45.9965 
  93   0.0000       1.748382        47.5759 
  94   0.0000       1.782856        48.5140 
  95   0.0000       1.787714        48.6462 
  96   0.0000       1.800034        48.9814 
  97   0.0000       1.809957        49.2514 
  98   0.0000       1.829544        49.7844 
  99   0.0000       1.848663        50.3047 
 100   0.0000       1.859748        50.6063 
 101   0.0000       1.923060        52.3291 
 102   0.0000       1.928297        52.4716 
 103   0.0000       1.945980        52.9528 
 104   0.0000       1.958783        53.3012 
 105   0.0000       1.996017        54.3144 
 106   0.0000       2.020553        54.9820 
 107   0.0000       2.049332        55.7652 
 108   0.0000       2.083776        56.7024 
 109   0.0000       2.114505        57.5386 
 110   0.0000       2.166924        58.9650 
 111   0.0000       2.202132        59.9231 
 112   0.0000       2.248438        61.1831 
 113   0.0000       2.272682        61.8428 
 114   0.0000       2.289665        62.3050 
 115   0.0000       2.324748        63.2596 
 116   0.0000       2.333139        63.4879 
 117   0.0000       2.407291        65.5057 
 118   0.0000       2.432107        66.1810 
 119   0.0000       2.505441        68.1765 
 120   0.0000       2.569346        69.9155 
 121   0.0000       2.592722        70.5516 
 122   0.0000       2.617122        71.2155 
 123   0.0000       2.655328        72.2551 
 124   0.0000       2.677389        72.8554 
 125   0.0000       2.697010        73.3894 
 126   0.0000       2.766155        75.2709 
 127   0.0000       2.816118        76.6305 
 128   0.0000       2.854129        77.6648 
 129   0.0000       2.890446        78.6530 
 130   0.0000       2.891929        78.6934 
 131   0.0000       2.918753        79.4233 
 132   0.0000       2.946907        80.1894 
 133   0.0000       2.973962        80.9256 
 134   0.0000       3.013687        82.0066 
 135   0.0000       3.026834        82.3643 
 136   0.0000       3.073633        83.6378 
 137   0.0000       3.088559        84.0440 
 138   0.0000       3.136853        85.3581 
 139   0.0000       3.179820        86.5273 
 140   0.0000       3.273957        89.0889 
 141   0.0000       3.470386        94.4340 
 142   0.0000       3.778167       102.8092 

                 SPIN DOWN ORBITALS
  NO   OCC          E(Eh)            E(eV) 
   0   1.0000     -19.242574      -523.6171 
   1   1.0000     -19.192259      -522.2479 
   2   1.0000     -10.279899      -279.7303 
   3   1.0000     -10.268845      -279.4295 
   4   1.0000     -10.241932      -278.6971 
   5   1.0000     -10.239551      -278.6323 
   6   1.0000     -10.227127      -278.2943 
   7   1.0000      -1.046586       -28.4791 
   8   1.0000      -0.921940       -25.0873 
   9   1.0000      -0.836250       -22.7555 
  10   1.0000      -0.737289       -20.0627 
  11   1.0000      -0.708164       -19.2701 
  12   1.0000      -0.573542       -15.6069 
  13   1.0000      -0.568622       -15.4730 
  14   1.0000      -0.536754       -14.6058 
  15   1.0000      -0.492971       -13.4144 
  16   1.0000      -0.470787       -12.8108 
  17   1.0000      -0.445466       -12.1218 
  18   1.0000      -0.406367       -11.0578 
  19   1.0000      -0.391908       -10.6643 
  20   1.0000      -0.384274       -10.4566 
  21   1.0000      -0.376658       -10.2494 
  22   1.0000      -0.368598       -10.0301 
  23   1.0000      -0.345563        -9.4032 
  24   1.0000      -0.330291        -8.9877 
  25   1.0000      -0.298813        -8.1311 
  26   1.0000      -0.248454        -6.7608 
  27   0.0000      -0.062681        -1.7056 
  28   0.0000       0.007519         0.2046 
  29   0.0000       0.071537         1.9466 
  30   0.0000       0.098359         2.6765 
  31   0.0000       0.115397         3.1401 
  32   0.0000       0.118636         3.2282 
  33   0.0000       0.128193         3.4883 
  34   0.0000       0.141032         3.8377 
  35   0.0000       0.150141         4.0855 
  36   0.0000       0.158181         4.3043 
  37   0.0000       0.177355         4.8261 
  38   0.0000       0.191861         5.2208 
  39   0.0000       0.205146         5.5823 
  40   0.0000       0.215338         5.8596 
  41   0.0000       0.253489         6.8978 
  42   0.0000       0.265806         7.2329 
  43   0.0000       0.316081         8.6010 
  44   0.0000       0.431300        11.7363 
  45   0.0000       0.462101        12.5744 
  46   0.0000       0.483868        13.1667 
  47   0.0000       0.499758        13.5991 
  48   0.0000       0.506969        13.7953 
  49   0.0000       0.541501        14.7350 
  50   0.0000       0.566365        15.4116 
  51   0.0000       0.598696        16.2913 
  52   0.0000       0.613316        16.6892 
  53   0.0000       0.619561        16.8591 
  54   0.0000       0.638966        17.3871 
  55   0.0000       0.643971        17.5233 
  56   0.0000       0.653977        17.7956 
  57   0.0000       0.665986        18.1224 
  58   0.0000       0.676190        18.4001 
  59   0.0000       0.689909        18.7734 
  60   0.0000       0.696032        18.9400 
  61   0.0000       0.699463        19.0334 
  62   0.0000       0.707382        19.2488 
  63   0.0000       0.715498        19.4697 
  64   0.0000       0.729544        19.8519 
  65   0.0000       0.744098        20.2479 
  66   0.0000       0.773239        21.0409 
  67   0.0000       0.795214        21.6389 
  68   0.0000       0.869789        23.6682 
  69   0.0000       0.945795        25.7364 
  70   0.0000       0.958154        26.0727 
  71   0.0000       0.994769        27.0690 
  72   0.0000       1.013629        27.5822 
  73   0.0000       1.051095        28.6017 
  74   0.0000       1.067894        29.0589 
  75   0.0000       1.099746        29.9256 
  76   0.0000       1.147194        31.2167 
  77   0.0000       1.208053        32.8728 
  78   0.0000       1.255836        34.1730 
  79   0.0000       1.303626        35.4735 
  80   0.0000       1.357110        36.9288 
  81   0.0000       1.366298        37.1788 
  82   0.0000       1.420093        38.6427 
  83   0.0000       1.477387        40.2017 
  84   0.0000       1.496408        40.7193 
  85   0.0000       1.540983        41.9323 
  86   0.0000       1.557152        42.3723 
  87   0.0000       1.573201        42.8090 
  88   0.0000       1.617862        44.0242 
  89   0.0000       1.626678        44.2642 
  90   0.0000       1.665480        45.3200 
  91   0.0000       1.690348        45.9967 
  92   0.0000       1.698580        46.2207 
  93   0.0000       1.751973        47.6736 
  94   0.0000       1.785050        48.5737 
  95   0.0000       1.792815        48.7850 
  96   0.0000       1.802093        49.0374 
  97   0.0000       1.813097        49.3369 
  98   0.0000       1.832352        49.8608 
  99   0.0000       1.851141        50.3721 
 100   0.0000       1.864236        50.7284 
 101   0.0000       1.925152        52.3861 
 102   0.0000       1.932098        52.5751 
 103   0.0000       1.949787        53.0564 
 104   0.0000       1.961216        53.3674 
 105   0.0000       2.005143        54.5627 
 106   0.0000       2.029175        55.2166 
 107   0.0000       2.055470        55.9322 
 108   0.0000       2.087068        56.7920 
 109   0.0000       2.117384        57.6169 
 110   0.0000       2.173190        59.1355 
 111   0.0000       2.207417        60.0669 
 112   0.0000       2.252731        61.2999 
 113   0.0000       2.281369        62.0792 
 114   0.0000       2.302890        62.6648 
 115   0.0000       2.327330        63.3299 
 116   0.0000       2.343797        63.7780 
 117   0.0000       2.416401        65.7536 
 118   0.0000       2.434373        66.2427 
 119   0.0000       2.513641        68.3996 
 120   0.0000       2.575831        70.0919 
 121   0.0000       2.593071        70.5611 
 122   0.0000       2.621372        71.3312 
 123   0.0000       2.672889        72.7330 
 124   0.0000       2.684402        73.0463 
 125   0.0000       2.705863        73.6303 
 126   0.0000       2.773720        75.4768 
 127   0.0000       2.817350        76.6640 
 128   0.0000       2.858054        77.7716 
 129   0.0000       2.893922        78.7476 
 130   0.0000       2.896978        78.8308 
 131   0.0000       2.918711        79.4222 
 132   0.0000       2.949692        80.2652 
 133   0.0000       2.987703        81.2995 
 134   0.0000       3.017419        82.1081 
 135   0.0000       3.033047        82.5334 
 136   0.0000       3.074711        83.6671 
 137   0.0000       3.105777        84.5125 
 138   0.0000       3.138739        85.4094 
 139   0.0000       3.185441        86.6802 
 140   0.0000       3.288213        89.4768 
 141   0.0000       3.469456        94.4087 
 142   0.0000       3.790465       103.1438 

                    ********************************
                    * MULLIKEN POPULATION ANALYSIS *
                    ********************************

--------------------------------------------
MULLIKEN ATOMIC CHARGES AND SPIN POPULATIONS
--------------------------------------------
   0 O :   -0.254674    0.500554
   1 O :   -0.306408   -0.133432
   2 C :    0.002847    0.030835
   3 C :    0.057157   -0.062255
   4 C :   -0.134516    0.665564
   5 C :    0.042656   -0.058930
   6 C :    0.055959    0.007046
   7 H :    0.165539   -0.010075
   8 H :    0.041543   -0.004913
   9 H :    0.055440    0.003766
  10 H :    0.044732    0.050443
  11 H :    0.043617   -0.030921
  12 H :    0.058351    0.013885
  13 H :    0.044034    0.030556
  14 H :    0.053163   -0.001623
  15 H :    0.030559   -0.000499
Sum of atomic charges         :    0.0000000
Sum of atomic spin populations:    1.0000000

-----------------------------------------------------
MULLIKEN REDUCED ORBITAL CHARGES AND SPIN POPULATIONS
-----------------------------------------------------
CHARGE
  0 O s       :     3.828826  s :     3.828826
      pz      :     1.367104  p :     4.416956
      px      :     1.143333
      py      :     1.906520
      dz2     :     0.004633  d :     0.008892
      dxz     :     0.000573
      dyz     :     0.001461
      dx2y2   :     0.001532
      dxy     :     0.000694
  1 O s       :     3.892316  s :     3.892316
      pz      :     1.362966  p :     4.399397
      px      :     1.168338
      py      :     1.868093
      dz2     :     0.006091  d :     0.014695
      dxz     :     0.002507
      dyz     :     0.002128
      dx2y2   :     0.002804
      dxy     :     0.001164
  2 C s       :     3.208051  s :     3.208051
      pz      :     0.747639  p :     2.714078
      px      :     0.973578
      py      :     0.992861
      dz2     :     0.021017  d :     0.075025
      dxz     :     0.017036
      dyz     :     0.015637
      dx2y2   :     0.009781
      dxy     :     0.011553
  3 C s       :     3.033988  s :     3.033988
      pz      :     0.966781  p :     2.872174
      px      :     0.936751
      py      :     0.968641
      dz2     :     0.006741  d :     0.036681
      dxz     :     0.008482
      dyz     :     0.007128
      dx2y2   :     0.008089
      dxy     :     0.006240
  4 C s       :     3.353171  s :     3.353171
      pz      :     0.939275  p :     2.743797
      px      :     0.818440
      py      :     0.986082
      dz2     :     0.006960  d :     0.037549
      dxz     :     0.006802
      dyz     :     0.010435
      dx2y2   :     0.007981
      dxy     :     0.005370
  5 C s       :     2.942603  s :     2.942603
      pz      :     1.015534  p :     2.978562
      px      :     1.016664
      py      :     0.946364
      dz2     :     0.005551  d :     0.036179
      dxz     :     0.007076
      dyz     :     0.008894
      dx2y2   :     0.008448
      dxy     :     0.006210
  6 C s       :     2.955813  s :     2.955813
      pz      :     0.980735  p :     2.954892
      px      :     0.999502
      py      :     0.974656
      dz2     :     0.008803  d :     0.033335
      dxz     :     0.007228
      dyz     :     0.003252
      dx2y2   :     0.005792
      dxy     :     0.008260
  7 H s       :     0.766507  s :     0.766507
      pz      :     0.034449  p :     0.067954
      px      :     0.011303
      py      :     0.022202
  8 H s       :     0.936900  s :     0.936900
      pz      :     0.006489  p :     0.021557
      px      :     0.009934
      py      :     0.005134
  9 H s       :     0.921409  s :     0.921409
      pz      :     0.005130  p :     0.023151
      px      :     0.004259
      py      :     0.013762
 10 H s       :     0.932123  s :     0.932123
      pz      :     0.010856  p :     0.023144
      px      :     0.008149
      py      :     0.004139
 11 H s       :     0.932168  s :     0.932168
      pz      :     0.012935  p :     0.024215
      px      :     0.006884
      py      :     0.004396
 12 H s       :     0.918419  s :     0.918419
      pz      :     0.009970  p :     0.023230
      px      :     0.005297
      py      :     0.007963
 13 H s       :     0.932332  s :     0.932332
      pz      :     0.005921  p :     0.023633
      px      :     0.011924
      py      :     0.005788
 14 H s       :     0.923520  s :     0.923520
      pz      :     0.004491  p :     0.023317
      px      :     0.010474
      py      :     0.008351
 15 H s       :     0.946315  s :     0.946315
      pz      :     0.012982  p :     0.023126
      px      :     0.005670
      py      :     0.004473

SPIN
  0 O s       :     0.003877  s :     0.003877
      pz      :     0.008561  p :     0.496560
      px      :     0.492637
      py      :    -0.004638
      dz2     :     0.000007  d :     0.000117
      dxz     :     0.000123
      dyz     :     0.000031
      dx2y2   :    -0.000041
      dxy     :    -0.000003
  1 O s       :     0.018236  s :     0.018236
      pz      :     0.003017  p :    -0.152886
      px      :    -0.198287
      py      :     0.042384
      dz2     :     0.000155  d :     0.001218
      dxz     :    -0.000044
      dyz     :    -0.000040
      dx2y2   :     0.001124
      dxy     :     0.000023
  2 C s       :     0.001855  s :     0.001855
      pz      :     0.005142  p :     0.029145
      px      :     0.014228
      py      :     0.009775
      dz2     :    -0.000292  d :    -0.000164
      dxz     :    -0.000026
      dyz     :     0.000139
      dx2y2   :    -0.000152
      dxy     :     0.000167
  3 C s       :    -0.017252  s :    -0.017252
      pz      :    -0.024558  p :    -0.050183
      px      :    -0.014101
      py      :    -0.011524
      dz2     :     0.001731  d :     0.005179
      dxz     :     0.002914
      dyz     :     0.000188
      dx2y2   :     0.000061
      dxy     :     0.000285
  4 C s       :     0.081831  s :     0.081831
      pz      :     0.088183  p :     0.585456
      px      :     0.475533
      py      :     0.021740
      dz2     :    -0.000225  d :    -0.001723
      dxz     :    -0.000724
      dyz     :    -0.000134
      dx2y2   :    -0.000836
      dxy     :     0.000196
  5 C s       :    -0.017681  s :    -0.017681
      pz      :    -0.006392  p :    -0.045317
      px      :    -0.013777
      py      :    -0.025149
      dz2     :     0.000011  d :     0.004068
      dxz     :     0.000577
      dyz     :     0.000885
      dx2y2   :     0.000004
      dxy     :     0.002590
  6 C s       :     0.001020  s :     0.001020
      pz      :     0.003147  p :     0.006080
      px      :     0.003367
      py      :    -0.000433
      dz2     :    -0.000092  d :    -0.000054
      dxz     :    -0.000005
      dyz     :     0.000030
      dx2y2   :     0.000044
      dxy     :    -0.000032
  7 H s       :    -0.013862  s :    -0.013862
      pz      :     0.000142  p :     0.003787
      px      :     0.004105
      py      :    -0.000460
  8 H s       :    -0.005164  s :    -0.005164
      pz      :     0.000100  p :     0.000251
      px      :     0.000088
      py      :     0.000063
  9 H s       :     0.003912  s :     0.003912
      pz      :    -0.000098  p :    -0.000147
      px      :     0.000002
      py      :    -0.000050
 10 H s       :     0.050879  s :     0.050879
      pz      :    -0.000383  p :    -0.000436
      px      :    -0.000134
      py      :     0.000080
 11 H s       :    -0.034973  s :    -0.034973
      pz      :     0.000937  p :     0.004052
      px      :     0.003160
      py      :    -0.000044
 12 H s       :     0.014083  s :     0.014083
      pz      :    -0.000037  p :    -0.000198
      px      :    -0.000004
      py      :    -0.000157
 13 H s       :     0.030720  s :     0.030720
      pz      :    -0.000013  p :    -0.000164
      px      :     0.000001
      py      :    -0.000151
 14 H s       :    -0.001708  s :    -0.001708
      pz      :     0.000015  p :     0.000084
      px      :     0.000043
      py      :     0.000026
 15 H s       :    -0.000505  s :    -0.000505
      pz      :     0.000015  p :     0.000005
      px      :    -0.000005
      py      :    -0.000004


                     *******************************
                     * LOEWDIN POPULATION ANALYSIS *
                     *******************************

-------------------------------------------
LOEWDIN ATOMIC CHARGES AND SPIN POPULATIONS
-------------------------------------------
   0 O :   -0.158693    0.461893
   1 O :   -0.115818   -0.088321
   2 C :    0.056038    0.026324
   3 C :   -0.049879   -0.012773
   4 C :    0.077520    0.538611
   5 C :   -0.046827   -0.011379
   6 C :   -0.044375    0.005128
   7 H :    0.049431    0.006103
   8 H :    0.015962   -0.002323
   9 H :    0.034958    0.002723
  10 H :    0.026577    0.037299
  11 H :    0.020316    0.001985
  12 H :    0.039172    0.010057
  13 H :    0.036237    0.025502
  14 H :    0.034939   -0.000698
  15 H :    0.024439   -0.000133

----------------------------------------------------
LOEWDIN REDUCED ORBITAL CHARGES AND SPIN POPULATIONS
----------------------------------------------------
CHARGE
  0 O s       :     3.635911  s :     3.635911
      pz      :     1.465365  p :     4.506683
      px      :     1.156325
      py      :     1.884994
      dz2     :     0.009462  d :     0.016099
      dxz     :     0.000674
      dyz     :     0.002073
      dx2y2   :     0.002746
      dxy     :     0.001145
  1 O s       :     3.641595  s :     3.641595
      pz      :     1.437686  p :     4.448659
      px      :     1.152714
      py      :     1.858258
      dz2     :     0.010422  d :     0.025564
      dxz     :     0.004733
      dyz     :     0.003231
      dx2y2   :     0.005312
      dxy     :     0.001866
  2 C s       :     2.861447  s :     2.861447
      pz      :     0.866848  p :     2.914358
      px      :     1.016512
      py      :     1.030997
      dz2     :     0.049794  d :     0.168157
      dxz     :     0.036652
      dyz     :     0.031544
      dx2y2   :     0.022724
      dxy     :     0.027443
  3 C s       :     2.844716  s :     2.844716
      pz      :     1.043163  p :     3.108919
      px      :     1.027130
      py      :     1.038625
      dz2     :     0.017788  d :     0.096244
      dxz     :     0.022833
      dyz     :     0.018848
      dx2y2   :     0.020803
      dxy     :     0.015972
  4 C s       :     2.926323  s :     2.926323
      pz      :     1.033042  p :     2.910315
      px      :     0.832769
      py      :     1.044504
      dz2     :     0.016583  d :     0.085842
      dxz     :     0.014414
      dyz     :     0.026598
      dx2y2   :     0.017552
      dxy     :     0.010695
  5 C s       :     2.833752  s :     2.833752
      pz      :     1.050179  p :     3.120428
      px      :     1.043810
      py      :     1.026440
      dz2     :     0.012313  d :     0.092646
      dxz     :     0.019296
      dyz     :     0.023026
      dx2y2   :     0.023497
      dxy     :     0.014514
  6 C s       :     2.848076  s :     2.848076
      pz      :     1.035487  p :     3.111018
      px      :     1.039124
      py      :     1.036406
      dz2     :     0.022867  d :     0.085281
      dxz     :     0.019247
      dyz     :     0.007035
      dx2y2   :     0.015438
      dxy     :     0.020694
  7 H s       :     0.763772  s :     0.763772
      pz      :     0.096663  p :     0.186796
      px      :     0.031408
      py      :     0.058725
  8 H s       :     0.914338  s :     0.914338
      pz      :     0.021723  p :     0.069700
      px      :     0.030718
      py      :     0.017259
  9 H s       :     0.894959  s :     0.894959
      pz      :     0.015732  p :     0.070083
      px      :     0.014317
      py      :     0.040035
 10 H s       :     0.904097  s :     0.904097
      pz      :     0.031352  p :     0.069325
      px      :     0.025211
      py      :     0.012763
 11 H s       :     0.901292  s :     0.901292
      pz      :     0.038629  p :     0.078392
      px      :     0.023694
      py      :     0.016069
 12 H s       :     0.891749  s :     0.891749
      pz      :     0.029464  p :     0.069079
      px      :     0.015945
      py      :     0.023670
 13 H s       :     0.894521  s :     0.894521
      pz      :     0.017930  p :     0.069243
      px      :     0.034121
      py      :     0.017192
 14 H s       :     0.894423  s :     0.894423
      pz      :     0.013616  p :     0.070637
      px      :     0.030307
      py      :     0.026715
 15 H s       :     0.905576  s :     0.905576
      pz      :     0.037380  p :     0.069985
      px      :     0.017470
      py      :     0.015134

SPIN
  0 O s       :     0.005092  s :     0.005092
      pz      :     0.003686  p :     0.456892
      px      :     0.457961
      py      :    -0.004755
      dz2     :    -0.000018  d :    -0.000090
      dxz     :    -0.000008
      dyz     :    -0.000024
      dx2y2   :     0.000033
      dxy     :    -0.000074
  1 O s       :     0.037222  s :     0.037222
      pz      :     0.004071  p :    -0.128767
      px      :    -0.174733
      py      :     0.041895
      dz2     :     0.000478  d :     0.003224
      dxz     :     0.000013
      dyz     :    -0.000003
      dx2y2   :     0.002634
      dxy     :     0.000102
  2 C s       :     0.003022  s :     0.003022
      pz      :     0.004015  p :     0.024574
      px      :     0.013146
      py      :     0.007414
      dz2     :    -0.001217  d :    -0.001272
      dxz     :    -0.000106
      dyz     :     0.000222
      dx2y2   :    -0.000299
      dxy     :     0.000128
  3 C s       :    -0.004163  s :    -0.004163
      pz      :    -0.011580  p :    -0.022368
      px      :    -0.004943
      py      :    -0.005844
      dz2     :     0.004474  d :     0.013758
      dxz     :     0.007342
      dyz     :     0.000965
      dx2y2   :     0.000236
      dxy     :     0.000741
  4 C s       :     0.024442  s :     0.024442
      pz      :     0.082277  p :     0.517436
      px      :     0.421464
      py      :     0.013696
      dz2     :    -0.000729  d :    -0.003267
      dxz     :    -0.000546
      dyz     :    -0.000652
      dx2y2   :    -0.001418
      dxy     :     0.000078
  5 C s       :    -0.003188  s :    -0.003188
      pz      :    -0.002850  p :    -0.019153
      px      :    -0.005086
      py      :    -0.011217
      dz2     :     0.000196  d :     0.010962
      dxz     :     0.001584
      dyz     :     0.002435
      dx2y2   :     0.000439
      dxy     :     0.006308
  6 C s       :     0.000840  s :     0.000840
      pz      :     0.001987  p :     0.004408
      px      :     0.002510
      py      :    -0.000090
      dz2     :    -0.000210  d :    -0.000120
      dxz     :    -0.000027
      dyz     :     0.000053
      dx2y2   :     0.000132
      dxy     :    -0.000068
  7 H s       :    -0.008678  s :    -0.008678
      pz      :     0.001486  p :     0.014781
      px      :     0.013867
      py      :    -0.000572
  8 H s       :    -0.003488  s :    -0.003488
      pz      :     0.000106  p :     0.001165
      px      :     0.000714
      py      :     0.000345
  9 H s       :     0.003372  s :     0.003372
      pz      :    -0.000347  p :    -0.000649
      px      :    -0.000063
      py      :    -0.000239
 10 H s       :     0.038092  s :     0.038092
      pz      :    -0.000605  p :    -0.000793
      px      :    -0.000313
      py      :     0.000124
 11 H s       :    -0.015467  s :    -0.015467
      pz      :     0.003800  p :     0.017452
      px      :     0.013184
      py      :     0.000468
 12 H s       :     0.010744  s :     0.010744
      pz      :    -0.000248  p :    -0.000686
      px      :    -0.000045
      py      :    -0.000394
 13 H s       :     0.026064  s :     0.026064
      pz      :    -0.000028  p :    -0.000562
      px      :    -0.000386
      py      :    -0.000148
 14 H s       :    -0.001028  s :    -0.001028
      pz      :     0.000115  p :     0.000330
      px      :     0.000130
      py      :     0.000085
 15 H s       :    -0.000220  s :    -0.000220
      pz      :     0.000101  p :     0.000087
      px      :     0.000016
      py      :    -0.000030


                      *****************************
                      * MAYER POPULATION ANALYSIS *
                      *****************************

  NA   - Mulliken gross atomic population
  ZA   - Total nuclear charge
  QA   - Mulliken gross atomic charge
  VA   - Mayer's total valence
  BVA  - Mayer's bonded valence
  FA   - Mayer's free valence

  ATOM       NA         ZA         QA         VA         BVA        FA
  0 O      8.2547     8.0000    -0.2547     2.0118     1.7580     0.2538
  1 O      8.3064     8.0000    -0.3064     2.0450     1.9800     0.0650
  2 C      5.9972     6.0000     0.0028     3.9941     3.9932     0.0009
  3 C      5.9428     6.0000     0.0572     3.8490     3.8472     0.0018
  4 C      6.1345     6.0000    -0.1345     3.9716     3.6577     0.3138
  5 C      5.9573     6.0000     0.0427     3.9578     3.9563     0.0015
  6 C      5.9440     6.0000     0.0560     3.9652     3.9651     0.0000
  7 H      0.8345     1.0000     0.1655     1.0137     1.0133     0.0004
  8 H      0.9585     1.0000     0.0415     1.0051     1.0051     0.0000
  9 H      0.9446     1.0000     0.0554     0.9885     0.9885     0.0000
 10 H      0.9553     1.0000     0.0447     0.9758     0.9732     0.0027
 11 H      0.9564     1.0000     0.0436     0.9950     0.9937     0.0013
 12 H      0.9416     1.0000     0.0584     0.9807     0.9805     0.0002
 13 H      0.9560     1.0000     0.0440     0.9764     0.9754     0.0010
 14 H      0.9468     1.0000     0.0532     0.9931     0.9931     0.0000
 15 H      0.9694     1.0000     0.0306     0.9786     0.9786     0.0000

  Mayer bond orders larger than 0.100000
B(  0-O ,  1-O ) :   0.5777 B(  0-O ,  4-C ) :   0.1096 B(  0-O ,  7-H ) :   0.9867 
B(  1-O ,  2-C ) :   0.9112 B(  1-O ,  4-C ) :   0.4135 B(  2-C ,  3-C ) :   0.9904 
B(  2-C ,  6-C ) :   1.0348 B(  2-C ,  8-H ) :   0.9548 B(  3-C ,  4-C ) :   0.9970 
B(  3-C ,  9-H ) :   0.9432 B(  3-C , 10-H ) :   0.9289 B(  4-C ,  5-C ) :   1.0543 
B(  4-C , 11-H ) :   0.9888 B(  5-C ,  6-C ) :   1.0642 B(  5-C , 12-H ) :   0.9309 
B(  5-C , 13-H ) :   0.9132 B(  6-C , 14-H ) :   0.9314 B(  6-C , 15-H ) :   0.9354 



------------------
HIRSHFELD ANALYSIS
------------------

Total integrated alpha density =     27.999943353
Total integrated beta density  =     26.999949098

  ATOM     CHARGE      SPIN    
   0 O   -0.250231    0.446182
   1 O   -0.128796   -0.061051
   2 C    0.061512    0.022035
   3 C   -0.052697    0.023462
   4 C    0.051985    0.426168
   5 C   -0.045495    0.022077
   6 C   -0.047963    0.006150
   7 H    0.145916    0.013707
   8 H    0.035729   -0.000926
   9 H    0.035043    0.003768
  10 H    0.028838    0.034562
  11 H    0.043258    0.027939
  12 H    0.034890    0.010435
  13 H    0.030398    0.025029
  14 H    0.033025    0.000056
  15 H    0.024694    0.000401

  TOTAL   0.000108    0.999994

-------
TIMINGS
-------

Total SCF time: 0 days 0 hours 0 min 12 sec 

Total time                  ....      12.643 sec
Sum of individual times     ....      12.479 sec  ( 98.7%)

Fock matrix formation       ....      11.406 sec  ( 90.2%)
  Split-RI-J                ....       0.991 sec  (  8.7% of F)
  Chain of spheres X        ....       7.486 sec  ( 65.6% of F)
  XC integration            ....       2.819 sec  ( 24.7% of F)
    Basis function eval.    ....       0.783 sec  ( 27.8% of XC)
    Density eval.           ....       0.759 sec  ( 26.9% of XC)
    XC-Functional eval.     ....       0.252 sec  (  8.9% of XC)
    XC-Potential eval.      ....       0.794 sec  ( 28.2% of XC)
Diagonalization             ....       0.210 sec  (  1.7%)
Density matrix formation    ....       0.010 sec  (  0.1%)
Population analysis         ....       0.163 sec  (  1.3%)
Initial guess               ....       0.044 sec  (  0.3%)
Orbital Transformation      ....       0.000 sec  (  0.0%)
Orbital Orthonormalization  ....       0.000 sec  (  0.0%)
DIIS solution               ....       0.141 sec  (  1.1%)
Grid generation             ....       0.504 sec  (  4.0%)

Maximum memory used throughout the entire SCF-calculation: 52.0 MB


-------------------------------------------------------------------------------
                          DFT DISPERSION CORRECTION                            
                                                                               
                              DFTD3 V3.1  Rev 1                                
                          USING Becke-Johnson damping                          
-------------------------------------------------------------------------------
The PBE0 functional is recognized
Active option DFTDOPT                   ...         4   

molecular C6(AA) [au] = 1942.552260 


            DFT-D V3
 parameters
 s6 scaling factor         :     1.0000 
 a1 scaling factor         :     0.4145 
 s8 scaling factor         :     1.2177 
 a2 scaling factor         :     4.8593 
 ad hoc parameters k1-k3   :    16.0000     1.3333    -4.0000 

 Edisp/kcal,au: -7.187676501635  -0.011454290384 
 E6   /kcal   :  -4.630358825 
[...]
     36      -0.015403  -0.301989  -0.283186   0.093623  -0.255006   0.048757
     37       0.013205  -0.221898  -0.285148   0.114731  -0.235538   0.219486
     38      -0.018702   0.313771   0.308955  -0.104773   0.317328  -0.112737
     39       0.119609  -0.145738   0.013478   0.068679  -0.176414  -0.004446
     40       0.130608  -0.135340  -0.062206   0.003602  -0.163565   0.064699
     41      -0.114871   0.178352   0.032383  -0.106729   0.192775  -0.014031
     42       0.160888   0.193427  -0.201516   0.148170  -0.222130  -0.215057
     43      -0.163388  -0.315391   0.264837  -0.170618   0.148099   0.312072
     44      -0.079991  -0.085915   0.096042  -0.088161   0.165761   0.000949
     45       0.200020   0.157775   0.269119   0.310942  -0.088417  -0.029487
     46      -0.216562  -0.056292  -0.279932  -0.419196   0.046444   0.190989
     47      -0.137016  -0.083251  -0.168815  -0.163595   0.087090   0.041166
                 36         37         38         39         40         41    
      0       0.000183   0.000282  -0.000975  -0.000092   0.000167  -0.000045
      1       0.000102   0.000791  -0.000767  -0.000013   0.000071   0.000065
      2       0.000031  -0.000687  -0.000397   0.000157  -0.000056  -0.000036
      3      -0.000211  -0.000525   0.002139   0.000528  -0.000666  -0.000118
      4      -0.000035  -0.000563   0.000545  -0.000092   0.000022  -0.000041
      5      -0.003460   0.004825   0.004700   0.000125   0.000043  -0.000448
      6      -0.003738   0.024213   0.013442  -0.000382  -0.000116   0.005520
      7      -0.003847   0.021047  -0.008345   0.002578   0.000055  -0.001251
      8       0.008852  -0.012041  -0.006729   0.000325   0.000110  -0.004053
      9       0.009617  -0.043455  -0.018253  -0.047793   0.002617   0.001234
     10       0.003312  -0.085350  -0.029998  -0.015515   0.000872   0.000916
     11      -0.003916  -0.051378  -0.018773  -0.055196   0.003438   0.001222
     12      -0.005987  -0.011582  -0.008006  -0.000691   0.000280  -0.000001
     13       0.007647   0.028959  -0.005408   0.000465  -0.000556   0.000113
     14       0.007603   0.021183   0.009099  -0.000012   0.001560   0.000379
     15      -0.034650   0.015227  -0.020811   0.004054   0.061195   0.005655
     16       0.053697  -0.017078   0.045908  -0.002415  -0.041233  -0.004082
     17       0.019535  -0.013180   0.011732   0.000601   0.010906  -0.001830
     18      -0.018354  -0.022745   0.025788   0.000245  -0.001462  -0.007516
     19      -0.022082  -0.018058   0.050797  -0.000577   0.003121  -0.036960
     20       0.028057   0.028461  -0.048553   0.002006  -0.005243   0.060573
     21       0.002121  -0.006441  -0.006871   0.000627  -0.000243   0.000040
     22       0.003575  -0.003367  -0.001323   0.000086  -0.000187   0.000162
     23       0.000342  -0.000637  -0.000012  -0.000523   0.000435   0.000144
     24      -0.007690  -0.025932   0.002262   0.021964  -0.002974  -0.067602
     25       0.009683  -0.090199   0.014689  -0.014020   0.002096   0.031033
     26      -0.002093  -0.009321  -0.046783  -0.019111   0.002518   0.055444
     27      -0.030490   0.391842   0.168686  -0.044081   0.001925   0.001139
     28      -0.010492   0.125532   0.058200   0.247167  -0.012368  -0.011179
     29      -0.030585   0.485842   0.204935  -0.078952   0.003663   0.002600
     30      -0.023635   0.020427   0.012276   0.598611  -0.033798  -0.015897
     31      -0.045467   0.637442   0.261356  -0.077138   0.003586   0.001604
     32       0.017130  -0.018892  -0.011716   0.745332  -0.044352  -0.018926
     33      -0.008511  -0.007464  -0.020200  -0.004521   0.009333   0.004639
     34      -0.011457  -0.097178   0.013503  -0.001970   0.000899   0.001620
     35       0.003033  -0.013949   0.016161   0.001340  -0.013544  -0.006907
     36       0.488822  -0.108657   0.286098   0.005477   0.091553   0.012832
     37      -0.328592   0.018646  -0.183866   0.009227   0.166320   0.025236
     38       0.130523   0.002202   0.082499   0.013542   0.224199   0.033108
     39      -0.026806  -0.005342  -0.020134  -0.049956  -0.809812  -0.065562
     40      -0.441909   0.057277  -0.256319   0.017028   0.320145   0.023909
     41      -0.400873   0.090913  -0.240256  -0.022465  -0.371744  -0.028706
     42      -0.025812   0.004060   0.048638   0.004749  -0.022935   0.373066
     43       0.110515   0.037670  -0.162792   0.002701  -0.017984   0.281304
     44      -0.346297  -0.253588   0.522475   0.002503  -0.006796   0.101015
     45       0.265300   0.198248  -0.395834  -0.008738   0.029964  -0.298347
     46       0.251602   0.150388  -0.370907   0.002856  -0.014258   0.137618
     47      -0.033240  -0.027062   0.038614  -0.023242   0.077471  -0.800826
                 42         43         44         45         46         47    
      0      -0.000268  -0.000229  -0.000232  -0.000096  -0.000999   0.007552
      1      -0.000048  -0.000039  -0.000015  -0.000113  -0.000249  -0.006381
      2       0.000012  -0.000558   0.000045   0.000100   0.000165   0.062587
      3       0.000194  -0.000124   0.000233   0.000089   0.001569  -0.000096
      4      -0.000050  -0.000100   0.000285   0.000077   0.000017  -0.000002
      5      -0.000174   0.000086   0.000038  -0.000324   0.000264  -0.000483
      6      -0.000446  -0.061997   0.012851   0.004081  -0.001234  -0.000617
      7       0.000127   0.031979  -0.006333  -0.001393   0.000137   0.000023
      8       0.000433   0.047918  -0.008995  -0.001803  -0.000035   0.000440
      9       0.000516   0.007993   0.021410   0.001007  -0.001650  -0.000010
     10      -0.000535  -0.013948  -0.078375  -0.004083   0.008028   0.000024
     11       0.000053   0.008364   0.034534   0.002277   0.000022  -0.000089
     12       0.001580   0.001272   0.002799   0.000687   0.039299  -0.000343
     13       0.000162   0.000485   0.002601   0.000409   0.024538  -0.000071
     14      -0.001898  -0.000763  -0.004384  -0.001213  -0.073766   0.000121
     15       0.039758   0.000978  -0.000673   0.004855  -0.000266  -0.000029
     16       0.040947  -0.001245   0.000031   0.004020  -0.004956  -0.000031
     17       0.068821  -0.000688  -0.000464   0.008247  -0.001266  -0.000007
     18      -0.008119   0.002460  -0.003937   0.070068  -0.001406  -0.000015
     19      -0.005759  -0.003473  -0.000901   0.037813  -0.000999   0.000012
     20      -0.005307   0.007632  -0.003615   0.048675   0.000108   0.000012
     21      -0.000160   0.000666  -0.000500  -0.000571   0.000149  -0.109478
     22       0.000392  -0.001012  -0.000064  -0.000105   0.000156   0.102487
     23      -0.000191   0.004373  -0.001039  -0.000343  -0.001174  -0.986647
     24       0.006438   0.708339  -0.138356  -0.037492   0.002086   0.003174
     25      -0.003385  -0.362593   0.069893   0.019171  -0.000812  -0.002036
     26      -0.005080  -0.558690   0.106377   0.027690   0.000284  -0.002342
     27      -0.000410  -0.025343  -0.121535  -0.005778   0.010518   0.000270
     28       0.002568   0.167554   0.904376   0.042327  -0.074519  -0.000158
     29      -0.001090  -0.045964  -0.246947  -0.012189   0.016153  -0.000062
     30      -0.000807  -0.050434  -0.144499  -0.011508   0.010432  -0.000577
     31      -0.000547   0.002818   0.008886  -0.000055   0.000745  -0.000364
     32      -0.001105  -0.059663  -0.179472  -0.014083   0.013138  -0.000651
     33      -0.017909  -0.007740  -0.037571  -0.010335  -0.465148  -0.000013
     34      -0.007630  -0.003544  -0.023311  -0.006346  -0.277090   0.000282
     35       0.027505   0.008828   0.064860   0.018663   0.831459  -0.001089
     36      -0.246175   0.002304   0.002479  -0.025697   0.009556   0.000369
     37      -0.573851   0.005748   0.006483  -0.065165   0.025143   0.000336
     38      -0.714466   0.006723   0.007001  -0.082593   0.025741   0.000083
     39      -0.235932  -0.006014   0.005211  -0.041065  -0.003509  -0.000047
     40       0.104992   0.002843  -0.001852   0.016939   0.002321   0.000546
     41      -0.097786  -0.003510   0.002256  -0.015683  -0.002684  -0.000413
     42       0.086259   0.005245   0.034883  -0.676310   0.011360   0.000171
     43       0.069392   0.005738   0.026861  -0.524912   0.009167   0.000468
     44       0.022285   0.001646   0.007867  -0.158399   0.001870   0.000096
     45       0.013201  -0.034035   0.013204  -0.152691   0.001524  -0.000122
     46      -0.006748   0.020224  -0.006824   0.080623  -0.000155   0.000263
     47       0.032505  -0.090520   0.034293  -0.428971   0.001308  -0.000359


-----------
IR SPECTRUM
-----------

 Mode   freq       eps      Int      T**2         TX        TY        TZ
       cm**-1   L/(mol*cm) km/mol    a.u.
----------------------------------------------------------------------------
  7:    123.74   0.000133    0.67  0.000336  ( 0.014670  0.010182  0.004153)
  8:    140.55   0.020581  104.01  0.045695  (-0.055530  0.205082  0.023506)
  9:    215.27   0.000224    1.13  0.000325  ( 0.006181 -0.016936  0.000206)
 10:    281.89   0.000045    0.23  0.000050  ( 0.003422  0.004175  0.004543)
 11:    355.78   0.006329   31.98  0.005551  ( 0.072992 -0.012058  0.008835)
 12:    415.16   0.000732    3.70  0.000550  ( 0.020820  0.008886 -0.006134)
 13:    489.85   0.001943    9.82  0.001238  (-0.011215  0.033055 -0.004384)
 14:    653.29   0.001098    5.55  0.000524  ( 0.019221 -0.002948  0.012089)
 15:    747.11   0.000588    2.97  0.000245  ( 0.009976  0.010604  0.005790)
 16:    798.79   0.000457    2.31  0.000179  ( 0.006527  0.007649 -0.008803)
 17:    810.99   0.000524    2.65  0.000201  (-0.002328  0.000959  0.013969)
 18:    899.61   0.001190    6.02  0.000413  (-0.013992 -0.000723  0.014718)
 19:    927.01   0.001489    7.52  0.000501  (-0.018685  0.006601  0.010415)
 20:    933.24   0.000366    1.85  0.000122  (-0.006601 -0.001857  0.008680)
 21:    956.08   0.000847    4.28  0.000276  ( 0.006592  0.015175 -0.001645)
 22:    984.02   0.010288   51.99  0.003263  ( 0.053740  0.008377 -0.017447)
 23:    997.40   0.000700    3.54  0.000219  ( 0.005310  0.004676  0.012999)
 24:   1032.65   0.001651    8.34  0.000499  (-0.022230 -0.000307 -0.002133)
 25:   1038.62   0.001386    7.00  0.000416  ( 0.013571  0.014992  0.002716)
 26:   1079.59   0.006634   33.53  0.001918  ( 0.039161 -0.002329  0.019457)
 27:   1141.19   0.001692    8.55  0.000463  ( 0.005353 -0.002132  0.020726)
 28:   1149.31   0.002078   10.50  0.000564  ( 0.017704  0.001274  0.015788)
 29:   1205.00   0.001384    7.00  0.000359  (-0.002987 -0.007956  0.016920)
 30:   1256.45   0.001410    7.13  0.000350  (-0.008198 -0.008463  0.014542)
 31:   1268.35   0.001029    5.20  0.000253  ( 0.005121 -0.015015  0.001266)
 32:   1276.99   0.000294    1.49  0.000072  (-0.001380 -0.006023  0.005810)
 33:   1293.60   0.001357    6.86  0.000327  ( 0.013610 -0.006890 -0.009730)
 34:   1340.71   0.001287    6.51  0.000300  (-0.016459  0.005087  0.001690)
 35:   1358.91   0.000129    0.65  0.000030  ( 0.004178 -0.000230  0.003466)
 36:   1433.00   0.000606    3.06  0.000132  ( 0.008102 -0.005011 -0.006416)
 37:   1444.81   0.001620    8.19  0.000350  ( 0.005498  0.017792  0.001754)
 38:   1465.19   0.001218    6.15  0.000259  ( 0.001373 -0.013846  0.008107)
 39:   3026.48   0.005791   29.27  0.000597  (-0.014392 -0.009250 -0.017448)
 40:   3041.51   0.004861   24.56  0.000499  ( 0.019329 -0.011167 -0.000641)
 41:   3093.34   0.004273   21.59  0.000431  ( 0.002202 -0.010081  0.018016)
 42:   3129.14   0.001437    7.26  0.000143  (-0.000122  0.007368  0.009433)
 43:   3150.42   0.004321   21.84  0.000428  (-0.009590  0.005649  0.017439)
 44:   3165.10   0.001602    8.09  0.000158  ( 0.002081 -0.012392 -0.000171)
 45:   3172.85   0.000925    4.68  0.000091  ( 0.005631  0.003300  0.006958)
 46:   3225.65   0.001291    6.53  0.000125  (-0.002307  0.004139 -0.010123)
 47:   3853.67   0.013401   67.72  0.001085  (-0.024965  0.001476 -0.021441)

* The epsilon (eps) is given for a Dirac delta lineshape.
** The dipole moment derivative (T) already includes vibrational overlap.

The first frequency considered to be a vibration is 7
The total number of vibrations considered is 41


--------------------------
THERMOCHEMISTRY AT 298.15K
--------------------------

Temperature         ... 298.15 K
Pressure            ... 1.00 atm
Total Mass          ... 101.12 AMU

Throughout the following assumptions are being made:
  (1) The electronic state is orbitally nondegenerate
      but the spin degeneracy is treated
  (2) There are no thermally accessible electronically excited states
  (3) Hindered rotations indicated by low frequency modes are not
      treated as such but are treated as vibrations and this may
      cause some error
  (4) All equations used are the standard statistical mechanics
      equations for an ideal gas
  (5) All vibrations are strictly harmonic

freq.     123.74  E(vib)   ...       0.43 
freq.     140.55  E(vib)   ...       0.41 
freq.     215.27  E(vib)   ...       0.34 
freq.     281.89  E(vib)   ...       0.28 
freq.     355.78  E(vib)   ...       0.22 
freq.     415.16  E(vib)   ...       0.19 
freq.     489.85  E(vib)   ...       0.15 
freq.     653.29  E(vib)   ...       0.08 
freq.     747.11  E(vib)   ...       0.06 
freq.     798.79  E(vib)   ...       0.05 
freq.     810.99  E(vib)   ...       0.05 
freq.     899.61  E(vib)   ...       0.03 
freq.     927.01  E(vib)   ...       0.03 
freq.     933.24  E(vib)   ...       0.03 
freq.     956.08  E(vib)   ...       0.03 
freq.     984.02  E(vib)   ...       0.02 
freq.     997.40  E(vib)   ...       0.02 
freq.    1032.65  E(vib)   ...       0.02 
freq.    1038.62  E(vib)   ...       0.02 
freq.    1079.59  E(vib)   ...       0.02 
freq.    1141.19  E(vib)   ...       0.01 
freq.    1149.31  E(vib)   ...       0.01 
freq.    1205.00  E(vib)   ...       0.01 
freq.    1256.45  E(vib)   ...       0.01 
freq.    1268.35  E(vib)   ...       0.01 
freq.    1276.99  E(vib)   ...       0.01 
freq.    1293.60  E(vib)   ...       0.01 
freq.    1340.71  E(vib)   ...       0.01 
freq.    1358.91  E(vib)   ...       0.01 
freq.    1433.00  E(vib)   ...       0.00 
freq.    1444.81  E(vib)   ...       0.00 
freq.    1465.19  E(vib)   ...       0.00 
freq.    3026.48  E(vib)   ...       0.00 
freq.    3041.51  E(vib)   ...       0.00 
freq.    3093.34  E(vib)   ...       0.00 
freq.    3129.14  E(vib)   ...       0.00 
freq.    3150.42  E(vib)   ...       0.00 
freq.    3165.10  E(vib)   ...       0.00 
freq.    3172.85  E(vib)   ...       0.00 
freq.    3225.65  E(vib)   ...       0.00 
freq.    3853.67  E(vib)   ...       0.00 

------------
INNER ENERGY
------------

The inner energy is: U= E(el) + E(ZPE) + E(vib) + E(rot) + E(trans)
    E(el)   - is the total energy from the electronic structure calculation
              = E(kin-el) + E(nuc-el) + E(el-el) + E(nuc-nuc)
    E(ZPE)  - the the zero temperature vibrational energy from the frequency calculation
    E(vib)  - the the finite temperature correction to E(ZPE) due to population
              of excited vibrational states
    E(rot)  - is the rotational thermal energy
    E(trans)- is the translational thermal energy

Summary of contributions to the inner energy U:
Electronic energy                ...   -345.56194287 Eh
Zero point energy                ...      0.13298193 Eh      83.45 kcal/mol
Thermal vibrational correction   ...      0.00410068 Eh       2.57 kcal/mol
Thermal rotational correction    ...      0.00141627 Eh       0.89 kcal/mol
Thermal translational correction ...      0.00141627 Eh       0.89 kcal/mol
-----------------------------------------------------------------------
Total thermal energy                   -345.42202772 Eh


Summary of corrections to the electronic energy:
(perhaps to be used in another calculation)
Total thermal correction                  0.00693322 Eh       4.35 kcal/mol
Non-thermal (ZPE) correction              0.13298193 Eh      83.45 kcal/mol
-----------------------------------------------------------------------
Total correction                          0.13991515 Eh      87.80 kcal/mol


--------
ENTHALPY
--------

The enthalpy is H = U + kB*T
                kB is Boltzmann's constant
Total free energy                 ...   -345.42202772 Eh 
Thermal Enthalpy correction       ...      0.00094421 Eh       0.59 kcal/mol
-----------------------------------------------------------------------
Total Enthalpy                    ...   -345.42108351 Eh


Note: Only C1 symmetry has been detected, increase convergence thresholds 
      if your molecule has a higher symmetry. Symmetry factor of 1.0 is   
      used for the rotational entropy correction. 
 

Note: Rotational entropy computed according to Herzberg 
Infrared and Raman Spectra, Chapter V,1, Van Nostrand Reinhold, 1945 
Point Group:  C1, Symmetry Number:   1  
Rotational constants in cm-1:     0.146302     0.077500     0.070076 

Vibrational entropy computed according to the QRRHO of S. Grimme
Chem.Eur.J. 2012 18 9955


-------
ENTROPY
-------

The entropy contributions are T*S = T*(S(el)+S(vib)+S(rot)+S(trans))
     S(el)   - electronic entropy
     S(vib)  - vibrational entropy
     S(rot)  - rotational entropy
     S(trans)- translational entropy
The entropies will be listed as multiplied by the temperature to get
units of energy

Electronic entropy                ...      0.00065446 Eh      0.41 kcal/mol
Vibrational entropy               ...      0.00676492 Eh      4.25 kcal/mol
Rotational entropy                ...      0.01288047 Eh      8.08 kcal/mol
Translational entropy             ...      0.01888709 Eh     11.85 kcal/mol
-----------------------------------------------------------------------
Final entropy term                ...      0.03918693 Eh     24.59 kcal/mol

In case the symmetry of your molecule has not been determined correctly
or in case you have a reason to use a different symmetry number we print 
out the resulting rotational entropy values for sn=1,12 :
 --------------------------------------------------------
|  sn= 1 | S(rot)=       0.01288047 Eh      8.08 kcal/mol|
|  sn= 2 | S(rot)=       0.01222601 Eh      7.67 kcal/mol|
|  sn= 3 | S(rot)=       0.01184318 Eh      7.43 kcal/mol|
|  sn= 4 | S(rot)=       0.01157155 Eh      7.26 kcal/mol|
|  sn= 5 | S(rot)=       0.01136087 Eh      7.13 kcal/mol|
|  sn= 6 | S(rot)=       0.01118872 Eh      7.02 kcal/mol|
|  sn= 7 | S(rot)=       0.01104318 Eh      6.93 kcal/mol|
|  sn= 8 | S(rot)=       0.01091710 Eh      6.85 kcal/mol|
|  sn= 9 | S(rot)=       0.01080589 Eh      6.78 kcal/mol|
|  sn=10 | S(rot)=       0.01070641 Eh      6.72 kcal/mol|
|  sn=11 | S(rot)=       0.01061642 Eh      6.66 kcal/mol|
|  sn=12 | S(rot)=       0.01053427 Eh      6.61 kcal/mol|
 --------------------------------------------------------


-------------------
GIBBS FREE ENERGY
-------------------

The Gibbs free energy is G = H - T*S

Total enthalpy                    ...   -345.42108351 Eh 
Total entropy correction          ...     -0.03918693 Eh    -24.59 kcal/mol
-----------------------------------------------------------------------
Final Gibbs free energy         ...   -345.46027044 Eh

For completeness - the Gibbs free energy minus the electronic energy
G-E(el)                           ...      0.10167243 Eh     63.80 kcal/mol


Timings for individual modules:

Sum of individual times         ...      223.561 sec (=   3.726 min)
GTO integral calculation        ...        3.707 sec (=   0.062 min)   1.7 %
SCF iterations                  ...       74.456 sec (=   1.241 min)  33.3 %
SCF Gradient evaluation         ...       19.056 sec (=   0.318 min)   8.5 %
Geometry relaxation             ...        0.464 sec (=   0.008 min)   0.2 %
Analytical frequency calculation...      125.877 sec (=   2.098 min)  56.3 %
                             ****ORCA TERMINATED NORMALLY****
TOTAL RUN TIME: 0 days 0 hours 3 minutes 46 seconds 859 msec
