
                                 *****************
                                 * O   R   C   A *
                                 *****************

                                            #,                                       
                                            ###                                      
                                            ####                                     
                                            #####                                    
                                            ######                                   
                                           ########,                                 
                                     ,,################,,,,,                         
                               ,,#################################,,                 
                          ,,##########################################,,             
                       ,#########################################, ''#####,          
                    ,#############################################,,   '####,        
                  ,##################################################,,,,####,       
                ,###########''''           ''''###############################       
              ,#####''   ,,,,##########,,,,          '''####'''          '####       
            ,##' ,,,,###########################,,,                        '##       
           ' ,,###''''                  '''############,,,                           
         ,,##''                                '''############,,,,        ,,,,,,###''
      ,#''                                            '''#######################'''  
     '                                                          ''''####''''         
             ,#######,   #######,   ,#######,      ##                                
            ,#'     '#,  ##    ##  ,#'     '#,    #''#        ######   ,####,        
            ##       ##  ##   ,#'  ##            #'  '#       #        #'  '#        
            ##       ##  #######   ##           ,######,      #####,   #    #        
            '#,     ,#'  ##    ##  '#,     ,#' ,#      #,         ##   #,  ,#        
             '#######'   ##     ##  '#######'  #'      '#     #####' # '####'        



                  #######################################################
                  #                        -***-                        #
                  #          Department of theory and spectroscopy      #
                  #    Directorship and core code : Frank Neese         #
                  #        Max Planck Institute fuer Kohlenforschung    #
                  #                Kaiser Wilhelm Platz 1               #
                  #                 D-45470 Muelheim/Ruhr               #
                  #                      Germany                        #
                  #                                                     #
                  #                  All rights reserved                #
                  #                        -***-                        #
                  #######################################################


                         Program Version 5.0.4 -  RELEASE  -


 With contributions from (in alphabetic order):
   Daniel Aravena         : Magnetic Suceptibility
   Michael Atanasov       : Ab Initio Ligand Field Theory (pilot matlab implementation)
   Alexander A. Auer      : GIAO ZORA, VPT2 properties, NMR spectrum
   Ute Becker             : Parallelization
   Giovanni Bistoni       : ED, misc. LED, open-shell LED, HFLD
   Martin Brehm           : Molecular dynamics
   Dmytro Bykov           : SCF Hessian
   Vijay G. Chilkuri      : MRCI spin determinant printing, contributions to CSF-ICE
   Dipayan Datta          : RHF DLPNO-CCSD density
   Achintya Kumar Dutta   : EOM-CC, STEOM-CC
   Dmitry Ganyushin       : Spin-Orbit,Spin-Spin,Magnetic field MRCI
   Miquel Garcia          : C-PCM and meta-GGA Hessian, CC/C-PCM, Gaussian charge scheme
   Yang Guo               : DLPNO-NEVPT2, F12-NEVPT2, CIM, IAO-localization
   Andreas Hansen         : Spin unrestricted coupled pair/coupled cluster methods
   Benjamin Helmich-Paris : MC-RPA, TRAH-SCF, COSX integrals
   Lee Huntington         : MR-EOM, pCC
   Robert Izsak           : Overlap fitted RIJCOSX, COSX-SCS-MP3, EOM
   Marcus Kettner         : VPT2
   Christian Kollmar      : KDIIS, OOCD, Brueckner-CCSD(T), CCSD density, CASPT2, CASPT2-K
   Simone Kossmann        : Meta GGA functionals, TD-DFT gradient, OOMP2, MP2 Hessian
   Martin Krupicka        : Initial AUTO-CI
   Lucas Lang             : DCDCAS
   Marvin Lechner         : AUTO-CI (C++ implementation), FIC-MRCC
   Dagmar Lenk            : GEPOL surface, SMD
   Dimitrios Liakos       : Extrapolation schemes; Compound Job, initial MDCI parallelization
   Dimitrios Manganas     : Further ROCIS development; embedding schemes
   Dimitrios Pantazis     : SARC Basis sets
   Anastasios Papadopoulos: AUTO-CI, single reference methods and gradients
   Taras Petrenko         : DFT Hessian,TD-DFT gradient, ASA, ECA, R-Raman, ABS, FL, XAS/XES, NRVS
   Peter Pinski           : DLPNO-MP2, DLPNO-MP2 Gradient
   Christoph Reimann      : Effective Core Potentials
   Marius Retegan         : Local ZFS, SOC
   Christoph Riplinger    : Optimizer, TS searches, QM/MM, DLPNO-CCSD(T), (RO)-DLPNO pert. Triples
   Tobias Risthaus        : Range-separated hybrids, TD-DFT gradient, RPA, STAB
   Michael Roemelt        : Original ROCIS implementation
   Masaaki Saitow         : Open-shell DLPNO-CCSD energy and density
   Barbara Sandhoefer     : DKH picture change effects
   Avijit Sen             : IP-ROCIS
   Kantharuban Sivalingam : CASSCF convergence, NEVPT2, FIC-MRCI
   Bernardo de Souza      : ESD, SOC TD-DFT
   Georgi Stoychev        : AutoAux, RI-MP2 NMR, DLPNO-MP2 response
   Willem Van den Heuvel  : Paramagnetic NMR
   Boris Wezisla          : Elementary symmetry handling
   Frank Wennmohs         : Technical directorship


 We gratefully acknowledge several colleagues who have allowed us to
 interface, adapt or use parts of their codes:
   Stefan Grimme, W. Hujo, H. Kruse, P. Pracht,  : VdW corrections, initial TS optimization,
                  C. Bannwarth, S. Ehlert          DFT functionals, gCP, sTDA/sTD-DF
   Ed Valeev, F. Pavosevic, A. Kumar             : LibInt (2-el integral package), F12 methods
   Garnet Chan, S. Sharma, J. Yang, R. Olivares  : DMRG
   Ulf Ekstrom                                   : XCFun DFT Library
   Mihaly Kallay                                 : mrcc  (arbitrary order and MRCC methods)
   Jiri Pittner, Ondrej Demel                    : Mk-CCSD
   Frank Weinhold                                : gennbo (NPA and NBO analysis)
   Christopher J. Cramer and Donald G. Truhlar   : smd solvation model
   Lars Goerigk                                  : TD-DFT with DH, B97 family of functionals
   V. Asgeirsson, H. Jonsson                     : NEB implementation
   FAccTs GmbH                                   : IRC, NEB, NEB-TS, DLPNO-Multilevel, CI-OPT
                                                   MM, QMMM, 2- and 3-layer-ONIOM, Crystal-QMMM,
                                                   LR-CPCM, SF, NACMEs, symmetry and pop. for TD-DFT,
                                                   nearIR, NL-DFT gradient (VV10), updates on ESD,
                                                   ML-optimized integration grids
   S Lehtola, MJT Oliveira, MAL Marques          : LibXC Library
   Liviu Ungur et al                             : ANISO software


 Your calculation uses the libint2 library for the computation of 2-el integrals
 For citations please refer to: http://libint.valeyev.net

 Your ORCA version has been built with support for libXC version: 5.1.0
 For citations please refer to: https://tddft.org/programs/libxc/

 This ORCA versions uses:
   CBLAS   interface :  Fast vector & matrix operations
   LAPACKE interface :  Fast linear algebra routines
   SCALAPACK package :  Parallel linear algebra routines
   Shared memory     :  Shared parallel matrices
   BLAS/LAPACK       :  OpenBLAS 0.3.15  USE64BITINT DYNAMIC_ARCH NO_AFFINITY SkylakeX SINGLE_THREADED
        Core in use  :  SkylakeX
   Copyright (c) 2011-2014, The OpenBLAS Project


Your calculation utilizes the atom-pairwise dispersion correction
with the Becke-Johnson damping scheme (D3BJ)
Cite in your paper:
S.Grimme, S.Ehrlich, L.Goerigk, J Comput Chem, (2011), 32, 1456–1465 
S.Grimme, J.Antony, S.Ehrlich and H.Krieg, J.Chem.Phys., 132, (2010), 154104 
   

================================================================================

----- Orbital basis set information -----
Your calculation utilizes the basis: def2-SVP
   F. Weigend and R. Ahlrichs, Phys. Chem. Chem. Phys. 7, 3297 (2005).

----- AuxJ basis set information -----
Your calculation utilizes the auxiliary basis: def2/J
   F. Weigend, Phys. Chem. Chem. Phys. 8, 1057 (2006).

================================================================================
                                        WARNINGS
                       Please study these warnings very carefully!
================================================================================


WARNING: your system is open-shell and RHF/RKS was chosen
  ===> : WILL SWITCH to UHF/UKS


INFO   : the flag for use of the SHARK integral package has been found!

================================================================================
                                       INPUT FILE
================================================================================
NAME = vdwLSy_ll_ad_1-4_0-1_hess_orca.inp
|  1> ! Freq PBE0 RIJCOSX D3BJ def2-SVP def2/J 
|  2> %output 
|  3> xyzfile=True 
|  4> end 
|  5> %scf 
|  6> maxiter 250 
|  7> end
|  8> %output
|  9> Print[P_Hirshfeld] = 1
| 10> end
| 11> % maxcore
| 12> 4000
| 13> %pal nprocs 8
| 14> end
| 15> *xyz 0 2
| 16> O    2.62773258  -0.21265829   0.88115918 
| 17> O    0.92309664  -0.54115705   0.78443446 
| 18> C    0.58203605  -0.46003794  -0.57760826 
| 19> C   -0.73832347  -1.22148858  -0.41634668 
| 20> C   -1.09897324  -0.31372560   0.71759577 
| 21> C   -0.97412174   1.09719807   0.25595144 
| 22> C    0.11001371   0.97719723  -0.83811656 
| 23> H    2.73993936  -0.45141213   1.80225974 
| 24> H    1.36749128  -0.84156053  -1.22868512 
| 25> H   -0.59414010  -2.25655583  -0.12019201 
| 26> H   -1.40940879  -1.15761992  -1.27761415 
| 27> H   -1.57036445  -0.61473125   1.63457246 
| 28> H   -0.67367113   1.75962411   1.06731464 
| 29> H   -1.92294194   1.46925908  -0.14463068 
| 30> H    0.92326717   1.68408758  -0.69541849 
| 31> H   -0.29136192   1.08377107  -1.84468571 
| 32> *
| 33> 
| 34>                          ****END OF INPUT****
================================================================================

                       ****************************
                       * Single Point Calculation *
                       ****************************

---------------------------------
CARTESIAN COORDINATES (ANGSTROEM)
---------------------------------
  O      2.627733   -0.212658    0.881159
  O      0.923097   -0.541157    0.784434
  C      0.582036   -0.460038   -0.577608
  C     -0.738323   -1.221489   -0.416347
  C     -1.098973   -0.313726    0.717596
  C     -0.974122    1.097198    0.255951
  C      0.110014    0.977197   -0.838117
  H      2.739939   -0.451412    1.802260
  H      1.367491   -0.841561   -1.228685
  H     -0.594140   -2.256556   -0.120192
  H     -1.409409   -1.157620   -1.277614
  H     -1.570364   -0.614731    1.634572
  H     -0.673671    1.759624    1.067315
  H     -1.922942    1.469259   -0.144631
  H      0.923267    1.684088   -0.695418
  H     -0.291362    1.083771   -1.844686

----------------------------
CARTESIAN COORDINATES (A.U.)
----------------------------
  NO LB      ZA    FRAG     MASS         X           Y           Z
   0 O     8.0000    0    15.999    4.965695   -0.401866    1.665150
   1 O     8.0000    0    15.999    1.744400   -1.022639    1.482366
   2 C     6.0000    0    12.011    1.099889   -0.869346   -1.091521
   3 C     6.0000    0    12.011   -1.395229   -2.308279   -0.786781
   4 C     6.0000    0    12.011   -2.076758   -0.592855    1.356059
   5 C     6.0000    0    12.011   -1.840823    2.073404    0.483678
   6 C     6.0000    0    12.011    0.207896    1.846635   -1.583811
   7 H     1.0000    0     1.008    5.177735   -0.853045    3.405777
   8 H     1.0000    0     1.008    2.584184   -1.590319   -2.321878
   9 H     1.0000    0     1.008   -1.122762   -4.264273   -0.227130
  10 H     1.0000    0     1.008   -2.663397   -2.187585   -2.414341
  11 H     1.0000    0     1.008   -2.967559   -1.161674    3.088894
  12 H     1.0000    0     1.008   -1.273054    3.325208    2.016932
  13 H     1.0000    0     1.008   -3.633834    2.776497   -0.273312
  14 H     1.0000    0     1.008    1.744722    3.182464   -1.314150
  15 H     1.0000    0     1.008   -0.550594    2.048031   -3.485951

--------------------------------
INTERNAL COORDINATES (ANGSTROEM)
--------------------------------
 O      0   0   0     0.000000000000     0.00000000     0.00000000
 O      1   0   0     1.738692265676     0.00000000     0.00000000
 C      2   1   0     1.406436279098   106.30363012     0.00000000
 C      3   2   1     1.532697503226    94.49412286   162.11571000
 C      4   3   2     1.496638688653    89.19649714    50.11409788
 C      5   4   3     1.489768098410   108.63016950    52.95405983
 C      3   2   1     1.535029184645   107.03307056   266.76483286
 H      1   2   3     0.958133601971    96.96231747   189.46255978
 H      3   2   1     1.089220125889   112.56956687    36.18777773
 H      4   3   2     1.086213903782   112.81443668   294.53433915
 H      4   3   2     1.093716767417   114.62725005   166.75098494
 H      5   4   3     1.074085808584   125.63467095   220.78813587
 H      6   5   4     1.089673836445   111.59938916   211.79739427
 H      6   5   4     1.095059451333   111.25522589    91.42104792
 H      7   3   2     1.086939693040   110.88927209    65.14184030
 H      7   3   2     1.088871816819   111.21515479   187.21966154

---------------------------
INTERNAL COORDINATES (A.U.)
---------------------------
 O      0   0   0     0.000000000000     0.00000000     0.00000000
 O      1   0   0     3.285652213294     0.00000000     0.00000000
 C      2   1   0     2.657779392307   106.30363012     0.00000000
 C      3   2   1     2.896378527242    94.49412286   162.11571000
 C      4   3   2     2.828237242984    89.19649714    50.11409788
 C      5   4   3     2.815253709047   108.63016950    52.95405983
 C      3   2   1     2.900784766556   107.03307056   266.76483286
 H      1   2   3     1.810610107432    96.96231747   189.46255978
 H      3   2   1     2.058327737486   112.56956687    36.18777773
 H      4   3   2     2.052646801006   112.81443668   294.53433915
 H      4   3   2     2.066825158496   114.62725005   166.75098494
 H      5   4   3     2.029728022554   125.63467095   220.78813587
 H      6   5   4     2.059185126181   111.59938916   211.79739427
 H      6   5   4     2.069362463382   111.25522589    91.42104792
 H      7   3   2     2.054018343935   110.88927209    65.14184030
 H      7   3   2     2.057669528733   111.21515479   187.21966154

---------------------
BASIS SET INFORMATION
---------------------
There are 3 groups of distinct atoms

 Group   1 Type O   : 7s4p1d contracted to 3s2p1d pattern {511/31/1}
 Group   2 Type C   : 7s4p1d contracted to 3s2p1d pattern {511/31/1}
 Group   3 Type H   : 4s1p contracted to 2s1p pattern {31/1}

Atom   0O    basis set group =>   1
Atom   1O    basis set group =>   1
Atom   2C    basis set group =>   2
Atom   3C    basis set group =>   2
Atom   4C    basis set group =>   2
Atom   5C    basis set group =>   2
Atom   6C    basis set group =>   2
Atom   7H    basis set group =>   3
Atom   8H    basis set group =>   3
Atom   9H    basis set group =>   3
Atom  10H    basis set group =>   3
Atom  11H    basis set group =>   3
Atom  12H    basis set group =>   3
Atom  13H    basis set group =>   3
Atom  14H    basis set group =>   3
Atom  15H    basis set group =>   3
---------------------------------
AUXILIARY/J BASIS SET INFORMATION
---------------------------------
There are 3 groups of distinct atoms

 Group   1 Type O   : 12s5p4d2f1g contracted to 6s4p3d1f1g pattern {711111/2111/211/2/1}
 Group   2 Type C   : 12s5p4d2f1g contracted to 6s4p3d1f1g pattern {711111/2111/211/2/1}
 Group   3 Type H   : 5s2p1d contracted to 3s1p1d pattern {311/2/1}

Atom   0O    basis set group =>   1
Atom   1O    basis set group =>   1
Atom   2C    basis set group =>   2
Atom   3C    basis set group =>   2
Atom   4C    basis set group =>   2
Atom   5C    basis set group =>   2
Atom   6C    basis set group =>   2
Atom   7H    basis set group =>   3
Atom   8H    basis set group =>   3
Atom   9H    basis set group =>   3
Atom  10H    basis set group =>   3
Atom  11H    basis set group =>   3
Atom  12H    basis set group =>   3
Atom  13H    basis set group =>   3
Atom  14H    basis set group =>   3
Atom  15H    basis set group =>   3


           ************************************************************
           *        Program running with 8 parallel MPI-processes     *
           *              working on a common directory               *
           ************************************************************
------------------------------------------------------------------------------
                           ORCA GTO INTEGRAL CALCULATION
                           -- RI-GTO INTEGRALS CHOSEN --
------------------------------------------------------------------------------
------------------------------------------------------------------------------
                   ___                                                        
                  /   \      - P O W E R E D   B Y -                         
                 /     \                                                     
                 |  |  |   _    _      __       _____    __    __             
                 |  |  |  | |  | |    /  \     |  _  \  |  |  /  |          
                  \  \/   | |  | |   /    \    | | | |  |  | /  /          
                 / \  \   | |__| |  /  /\  \   | |_| |  |  |/  /          
                |  |  |   |  __  | /  /__\  \  |    /   |      \           
                |  |  |   | |  | | |   __   |  |    \   |  |\   \          
                \     /   | |  | | |  |  |  |  | |\  \  |  | \   \       
                 \___/    |_|  |_| |__|  |__|  |_| \__\ |__|  \__/        
                                                                              
                      - O R C A' S   B I G   F R I E N D -                    
                                      &                                       
                       - I N T E G R A L  F E E D E R -                       
                                                                              
 v1 FN, 2020, v2 2021                                                         
------------------------------------------------------------------------------


Reading SHARK input file vdwLSy_ll_ad_1-4_0-1_hess_orca.SHARKINP.tmp ... ok
----------------------
SHARK INTEGRAL PACKAGE
----------------------

Number of atoms                             ...     16
Number of basis functions                   ...    143
Number of shells                            ...     69
Maximum angular momentum                    ...      2
Integral batch strategy                     ... SHARK/LIBINT Hybrid
RI-J (if used) integral strategy            ... SPLIT-RIJ (Revised 2003 algorithm where possible)
Printlevel                                  ...      1
Contraction scheme used                     ... SEGMENTED contraction
Coulomb Range Separation                    ... NOT USED
Exchange Range Separation                   ... NOT USED
Finite Nucleus Model                        ... NOT USED
Auxiliary Coulomb fitting basis             ... AVAILABLE
   # of basis functions in Aux-J            ...    442
   # of shells in Aux-J                     ...    150
   Maximum angular momentum in Aux-J        ...      4
Auxiliary J/K fitting basis                 ... NOT available
Auxiliary Correlation fitting basis         ... NOT available
Auxiliary 'external' fitting basis          ... NOT available
Integral threshold                          ...     1.000000e-10
Primitive cut-off                           ...     1.000000e-11
Primitive pair pre-selection threshold      ...     1.000000e-11

Calculating pre-screening integrals         ... done (  0.0 sec) Dimension = 69
Organizing shell pair data                  ... done (  0.0 sec)
Shell pair information
Total number of shell pairs                 ...      2415
Shell pairs after pre-screening             ...      2342
Total number of primitive shell pairs       ...      8503
Primitive shell pairs kept                  ...      6276
          la=0 lb=0:    754 shell pairs
          la=1 lb=0:    869 shell pairs
          la=1 lb=1:    269 shell pairs
          la=2 lb=0:    265 shell pairs
          la=2 lb=1:    157 shell pairs
          la=2 lb=2:     28 shell pairs

Calculating one electron integrals          ... done (  0.0 sec)
Calculating RI/J V-Matrix + Cholesky decomp.... done (  0.0 sec)
Calculating Nuclear repulsion               ... done (  0.0 sec) ENN=    324.537493654081 Eh

SHARK setup successfully completed in   0.1 seconds

Maximum memory used throughout the entire GTOINT-calculation: 11.1 MB


           ************************************************************
           *        Program running with 8 parallel MPI-processes     *
           *              working on a common directory               *
           ************************************************************
-------------------------------------------------------------------------------
                                 ORCA SCF
-------------------------------------------------------------------------------

------------
SCF SETTINGS
------------
Hamiltonian:
 Density Functional     Method          .... DFT(GTOs)
 Exchange Functional    Exchange        .... PBE
   PBE kappa parameter   XKappa         ....  0.804000
   PBE mue parameter    XMuePBE         ....  0.219520
 Correlation Functional Correlation     .... PBE
   PBE beta parameter  CBetaPBE         ....  0.066725
 LDA part of GGA corr.  LDAOpt          .... PW91-LDA
 Gradients option       PostSCFGGA      .... off
 Hybrid DFT is turned on
   Fraction HF Exchange ScalHFX         ....  0.250000
   Scaling of DF-GGA-X  ScalDFX         ....  0.750000
   Scaling of DF-GGA-C  ScalDFC         ....  1.000000
   Scaling of DF-LDA-C  ScalLDAC        ....  1.000000
   Perturbative correction              ....  0.000000
   Density functional embedding theory  .... OFF
   NL short-range parameter             ....  6.900000
 RI-approximation to the Coulomb term is turned on
   Number of AuxJ basis functions       .... 442
   RIJ-COSX (HFX calculated with COS-X)).... on


General Settings:
 Integral files         IntName         .... vdwLSy_ll_ad_1-4_0-1_hess_orca
 Hartree-Fock type      HFTyp           .... UHF
 Total Charge           Charge          ....    0
 Multiplicity           Mult            ....    2
 Number of Electrons    NEL             ....   55
 Basis Dimension        Dim             ....  143
 Nuclear Repulsion      ENuc            ....    324.5374936541 Eh

Convergence Acceleration:
 DIIS                   CNVDIIS         .... on
   Start iteration      DIISMaxIt       ....    12
   Startup error        DIISStart       ....  0.200000
   # of expansion vecs  DIISMaxEq       ....     5
   Bias factor          DIISBfac        ....   1.050
   Max. coefficient     DIISMaxC        ....  10.000
 Trust-Rad. Augm. Hess. CNVTRAH         .... auto
   Auto Start mean grad. ratio tolernc. ....  1.125000
   Auto Start start iteration           ....    20
   Auto Start num. interpolation iter.  ....    10
   Max. Number of Micro iterations      ....    16
   Max. Number of Macro iterations      .... Maxiter - #DIIS iter
   Number of Davidson start vectors     ....     2
   Converg. threshold I  (grad. norm)   ....   5.000e-05
   Converg. threshold II (energy diff.) ....   1.000e-06
   Grad. Scal. Fac. for Micro threshold ....   0.100
   Minimum threshold for Micro iter.    ....   0.010
   NR start threshold (gradient norm)   ....   0.001
   Initial trust radius                 ....   0.400
   Minimum AH scaling param. (alpha)    ....   1.000
   Maximum AH scaling param. (alpha)    .... 1000.000
   Orbital update algorithm             .... Taylor
   White noise on init. David. guess    .... on
   Maximum white noise                  ....   0.010
   Quad. conv. algorithm                .... NR
 SOSCF                  CNVSOSCF        .... off
 Level Shifting         CNVShift        .... on
   Level shift para.    LevelShift      ....    0.2500
   Turn off err/grad.   ShiftErr        ....    0.0010
 Zerner damping         CNVZerner       .... off
 Static damping         CNVDamp         .... on
   Fraction old density DampFac         ....    0.7000
   Max. Damping (<1)    DampMax         ....    0.9800
   Min. Damping (>=0)   DampMin         ....    0.0000
   Turn off err/grad.   DampErr         ....    0.1000
 Fernandez-Rico         CNVRico         .... off

SCF Procedure:
 Maximum # iterations   MaxIter         ....   250
 SCF integral mode      SCFMode         .... Direct
   Integral package                     .... SHARK and LIBINT hybrid scheme
 Reset frequency        DirectResetFreq ....    20
 Integral Threshold     Thresh          ....  1.000e-10 Eh
 Primitive CutOff       TCut            ....  1.000e-11 Eh

Convergence Tolerance:
 Convergence Check Mode ConvCheckMode   .... Total+1el-Energy
 Convergence forced     ConvForced      .... 0
 Energy Change          TolE            ....  1.000e-06 Eh
 1-El. energy change                    ....  1.000e-03 Eh
 DIIS Error             TolErr          ....  1.000e-06


Diagonalization of the overlap matrix:
Smallest eigenvalue                        ... 6.460e-04
Time for diagonalization                   ...    0.003 sec
Threshold for overlap eigenvalues          ... 1.000e-08
Number of eigenvalues below threshold      ... 0
Time for construction of square roots      ...    0.001 sec
Total time needed                          ...    0.005 sec

Time for model grid setup =    0.045 sec

------------------------------
INITIAL GUESS: MODEL POTENTIAL
------------------------------
Loading Hartree-Fock densities                     ... done
Calculating cut-offs                               ... done
Initializing the effective Hamiltonian             ... done
Setting up the integral package (SHARK)            ... done
Starting the Coulomb interaction                   ... done (   0.0 sec)
Reading the grid                                   ... done
Mapping shells                                     ... done
Starting the XC term evaluation                    ... done (   0.0 sec)
  promolecular density results
     # of electrons  =     54.995356585
     EX              =    -44.471514171
     EC              =     -1.824743376
     EX+EC           =    -46.296257547
Transforming the Hamiltonian                       ... done (   0.0 sec)
Diagonalizing the Hamiltonian                      ... done (   0.0 sec)
Back transforming the eigenvectors                 ... done (   0.0 sec)
Now organizing SCF variables                       ... done
                      ------------------
                      INITIAL GUESS DONE (   0.1 sec)
                      ------------------
-------------------
DFT GRID GENERATION
-------------------

General Integration Accuracy     IntAcc      ... 4.388
Radial Grid Type                 RadialGrid  ... OptM3 with GC (2021)
Angular Grid (max. ang.)         AngularGrid ... 4 (Lebedev-302)
Angular grid pruning method      GridPruning ... 4 (adaptive)
Weight generation scheme         WeightScheme... Becke
Basis function cutoff            BFCut       ... 1.0000e-10
Integration weight cutoff        WCut        ... 1.0000e-14
Angular grids for H and He will be reduced by one unit
Partially contracted basis set               ... off
Rotationally invariant grid construction     ... off

Total number of grid points                  ...    71033
Total number of batches                      ...     1119
Average number of points per batch           ...       63
Average number of grid points per atom       ...     4440
Time for grid setup =    0.263 sec

--------------------
COSX GRID GENERATION
--------------------

GRIDX 1
-------
General Integration Accuracy     IntAcc      ... 3.816
Radial Grid Type                 RadialGrid  ... OptM3 with GC (2021)
Angular Grid (max. ang.)         AngularGrid ... 1 (Lebedev-50)
Angular grid pruning method      GridPruning ... 4 (adaptive)
Weight generation scheme         WeightScheme... Becke
Basis function cutoff            BFCut       ... 1.0000e-10
Integration weight cutoff        WCut        ... 1.0000e-14
Angular grids for H and He will be reduced by one unit
Partially contracted basis set               ... on
Rotationally invariant grid construction     ... off

Total number of grid points                  ...     9093
Total number of batches                      ...      151
Average number of points per batch           ...       60
Average number of grid points per atom       ...      568
UseSFitting                                  ... on

GRIDX 2
-------
General Integration Accuracy     IntAcc      ... 4.020
Radial Grid Type                 RadialGrid  ... OptM3 with GC (2021)
Angular Grid (max. ang.)         AngularGrid ... 2 (Lebedev-110)
Angular grid pruning method      GridPruning ... 4 (adaptive)
Weight generation scheme         WeightScheme... Becke
Basis function cutoff            BFCut       ... 1.0000e-10
Integration weight cutoff        WCut        ... 1.0000e-14
Angular grids for H and He will be reduced by one unit
Partially contracted basis set               ... on
Rotationally invariant grid construction     ... off

Total number of grid points                  ...    19417
Total number of batches                      ...      312
Average number of points per batch           ...       62
Average number of grid points per atom       ...     1214
UseSFitting                                  ... on

GRIDX 3
-------
General Integration Accuracy     IntAcc      ... 4.338
Radial Grid Type                 RadialGrid  ... OptM3 with GC (2021)
Angular Grid (max. ang.)         AngularGrid ... 3 (Lebedev-194)
Angular grid pruning method      GridPruning ... 4 (adaptive)
Weight generation scheme         WeightScheme... Becke
Basis function cutoff            BFCut       ... 1.0000e-10
Integration weight cutoff        WCut        ... 1.0000e-14
Angular grids for H and He will be reduced by one unit
Partially contracted basis set               ... on
Rotationally invariant grid construction     ... off

Total number of grid points                  ...    42473
Total number of batches                      ...      671
Average number of points per batch           ...       63
Average number of grid points per atom       ...     2655
UseSFitting                                  ... on

Time for X-Grid setup             =    0.194 sec

--------------
SCF ITERATIONS
--------------
ITER       Energy         Delta-E        Max-DP      RMS-DP      [F,P]     Damp
               ***  Starting incremental Fock matrix formation  ***
  0   -345.3612232264   0.000000000000 0.04962671  0.00133650  0.1321589 0.7000
  1   -345.4464558378  -0.085232611443 0.03020217  0.00090508  0.0496835 0.7000
                               ***Turning on DIIS***
  2   -345.4783828230  -0.031926985189 0.05056843  0.00154898  0.0148555 0.0000
  3   -345.5304979348  -0.052115111841 0.03005866  0.00070124  0.0325293 0.0000
  4   -345.5436283476  -0.013130412809 0.00983888  0.00025551  0.0144507 0.0000
  5   -345.5451538582  -0.001525510559 0.00906608  0.00013899  0.0092428 0.0000
  6   -345.5458785392  -0.000724681016 0.01002224  0.00014815  0.0060206 0.0000
  7   -345.5464317529  -0.000553213643 0.00783224  0.00010069  0.0050183 0.0000
  8   -345.5467276301  -0.000295877232 0.00736741  0.00011075  0.0035995 0.0000
  9   -345.5469564544  -0.000228824278 0.00396757  0.00006554  0.0016406 0.0000
 10   -345.5470409489  -0.000084494558 0.00442699  0.00007855  0.0009756 0.0000
               *** Restarting incremental Fock matrix formation ***
                                   *** Resetting DIIS ***
 11   -345.5471127895  -0.000071840562 0.00166924  0.00002749  0.0007027 0.0000
 12   -345.5471114933   0.000001296218 0.00043962  0.00001005  0.0013187 0.0000
 13   -345.5471184733  -0.000006980070 0.00049387  0.00001197  0.0005399 0.0000
 14   -345.5471208005  -0.000002327119 0.00043854  0.00000981  0.0001865 0.0000
 15   -345.5471220429  -0.000001242476 0.00052621  0.00000926  0.0002366 0.0000
 16   -345.5471230222  -0.000000979212 0.00033263  0.00000594  0.0000980 0.0000
 17   -345.5471232540  -0.000000231849 0.00008624  0.00000144  0.0000260 0.0000
                 **** Energy Check signals convergence ****

               *****************************************************
               *                     SUCCESS                       *
               *           SCF CONVERGED AFTER  18 CYCLES          *
               *****************************************************

Old exchange energy                            =    -11.352154532 Eh
New exchange energy                            =    -11.352140208 Eh
Exchange energy change after final integration =      0.000014324 Eh
Total energy after final integration           =   -345.547108942 Eh
Final COS-X integration done in                =     0.781 sec

----------------
TOTAL SCF ENERGY
----------------

Total Energy       :         -345.54710894 Eh           -9402.81486 eV

Components:
Nuclear Repulsion  :          324.53749365 Eh            8831.11417 eV
Electronic Energy  :         -670.08460260 Eh          -18233.92903 eV
One Electron Energy:        -1113.84697367 Eh          -30309.31705 eV
Two Electron Energy:          443.76237107 Eh           12075.38802 eV
Max COSX asymmetry :            0.00000083 Eh               0.00002 eV

Virial components:
Potential Energy   :         -688.18154695 Eh          -18726.37192 eV
Kinetic Energy     :          342.63443801 Eh            9323.55706 eV
Virial Ratio       :            2.00850081


DFT components:
N(Alpha)           :       27.999943352116 electrons
N(Beta)            :       26.999949100640 electrons
N(Total)           :       54.999892452757 electrons
E(X)               :      -33.988337880516 Eh       
E(C)               :       -1.835814488311 Eh       
E(XC)              :      -35.824152368827 Eh       
DFET-embed. en.    :        0.000000000000 Eh       

---------------
SCF CONVERGENCE
---------------

  Last Energy change         ...   -1.2404e-08  Tolerance :   1.0000e-06
  Last MAX-Density change    ...    0.0000e+00  Tolerance :   1.0000e-05
  Last RMS-Density change    ...    0.0000e+00  Tolerance :   1.0000e-06
  Last DIIS Error            ...    1.7218e-05  Tolerance :   1.0000e-06

             **** THE GBW FILE WAS UPDATED (vdwLSy_ll_ad_1-4_0-1_hess_orca.gbw) ****
             **** DENSITY vdwLSy_ll_ad_1-4_0-1_hess_orca.scfp WAS UPDATED ****
             **** ENERGY FILE WAS UPDATED (vdwLSy_ll_ad_1-4_0-1_hess_orca.en.tmp) ****
----------------------
UHF SPIN CONTAMINATION
----------------------

Warning: in a DFT calculation there is little theoretical justification to 
         calculate <S**2> as in Hartree-Fock theory. We will do it anyways
         but you should keep in mind that the values have only limited relevance

Expectation value of <S**2>     :     0.826681
Ideal value S*(S+1) for S=0.5   :     0.750000
Deviation                       :     0.076681

             **** THE GBW FILE WAS UPDATED (vdwLSy_ll_ad_1-4_0-1_hess_orca.gbw) ****
             **** DENSITY vdwLSy_ll_ad_1-4_0-1_hess_orca.scfp WAS UPDATED ****
----------------
ORBITAL ENERGIES
----------------
                 SPIN UP ORBITALS
  NO   OCC          E(Eh)            E(eV) 
   0   1.0000     -19.240903      -523.5716 
   1   1.0000     -19.206810      -522.6439 
   2   1.0000     -10.280558      -279.7482 
   3   1.0000     -10.279677      -279.7242 
   4   1.0000     -10.241090      -278.6742 
   5   1.0000     -10.238796      -278.6118 
   6   1.0000     -10.227228      -278.2970 
   7   1.0000      -1.048014       -28.5179 
   8   1.0000      -0.951459       -25.8905 
   9   1.0000      -0.843086       -22.9415 
  10   1.0000      -0.740681       -20.1549 
  11   1.0000      -0.716390       -19.4940 
  12   1.0000      -0.581496       -15.8233 
  13   1.0000      -0.574379       -15.6296 
  14   1.0000      -0.541020       -14.7219 
  15   1.0000      -0.502393       -13.6708 
  16   1.0000      -0.474683       -12.9168 
  17   1.0000      -0.451998       -12.2995 
  18   1.0000      -0.417590       -11.3632 
  19   1.0000      -0.399602       -10.8737 
  20   1.0000      -0.386896       -10.5280 
  21   1.0000      -0.383620       -10.4388 
  22   1.0000      -0.369401       -10.0519 
  23   1.0000      -0.348734        -9.4895 
  24   1.0000      -0.344625        -9.3777 
  25   1.0000      -0.313345        -8.5266 
  26   1.0000      -0.258572        -7.0361 
  27   1.0000      -0.202302        -5.5049 
  28   0.0000      -0.039781        -1.0825 
  29   0.0000       0.069680         1.8961 
  30   0.0000       0.094855         2.5811 
  31   0.0000       0.113440         3.0869 
  32   0.0000       0.114112         3.1051 
  33   0.0000       0.125809         3.4234 
  34   0.0000       0.138138         3.7589 
  35   0.0000       0.147139         4.0038 
  36   0.0000       0.156895         4.2693 
  37   0.0000       0.175260         4.7691 
  38   0.0000       0.189408         5.1541 
  39   0.0000       0.202125         5.5001 
  40   0.0000       0.212803         5.7907 
  41   0.0000       0.251884         6.8541 
  42   0.0000       0.261264         7.1094 
  43   0.0000       0.311875         8.4865 
  44   0.0000       0.429942        11.6993 
  45   0.0000       0.458777        12.4840 
  46   0.0000       0.476531        12.9671 
  47   0.0000       0.484070        13.1722 
  48   0.0000       0.504818        13.7368 
  49   0.0000       0.529780        14.4161 
  50   0.0000       0.563927        15.3452 
  51   0.0000       0.579748        15.7757 
  52   0.0000       0.610659        16.6169 
  53   0.0000       0.615851        16.7582 
  54   0.0000       0.634999        17.2792 
  55   0.0000       0.640942        17.4409 
  56   0.0000       0.650814        17.7095 
  57   0.0000       0.661207        17.9924 
  58   0.0000       0.672288        18.2939 
  59   0.0000       0.685424        18.6513 
  60   0.0000       0.691843        18.8260 
  61   0.0000       0.697259        18.9734 
  62   0.0000       0.705230        19.1903 
  63   0.0000       0.712297        19.3826 
  64   0.0000       0.728065        19.8117 
  65   0.0000       0.739564        20.1246 
  66   0.0000       0.770038        20.9538 
  67   0.0000       0.790425        21.5086 
  68   0.0000       0.867143        23.5962 
  69   0.0000       0.933736        25.4082 
  70   0.0000       0.953651        25.9502 
  71   0.0000       0.986998        26.8576 
  72   0.0000       0.994236        27.0545 
  73   0.0000       1.047789        28.5118 
  74   0.0000       1.058160        28.7940 
  75   0.0000       1.093163        29.7465 
  76   0.0000       1.140977        31.0476 
  77   0.0000       1.205190        32.7949 
  78   0.0000       1.245980        33.9048 
  79   0.0000       1.293082        35.1865 
  80   0.0000       1.348879        36.7049 
  81   0.0000       1.361212        37.0405 
  82   0.0000       1.417065        38.5603 
  83   0.0000       1.477731        40.2111 
  84   0.0000       1.492438        40.6113 
  85   0.0000       1.536267        41.8040 
  86   0.0000       1.548704        42.1424 
  87   0.0000       1.568173        42.6722 
  88   0.0000       1.609291        43.7910 
  89   0.0000       1.625044        44.2197 
  90   0.0000       1.662780        45.2466 
  91   0.0000       1.686780        45.8996 
  92   0.0000       1.690348        45.9967 
  93   0.0000       1.748389        47.5761 
  94   0.0000       1.782863        48.5142 
  95   0.0000       1.787721        48.6464 
  96   0.0000       1.800039        48.9816 
  97   0.0000       1.809966        49.2517 
  98   0.0000       1.829549        49.7846 
  99   0.0000       1.848671        50.3049 
 100   0.0000       1.859755        50.6065 
 101   0.0000       1.923066        52.3293 
 102   0.0000       1.928303        52.4718 
 103   0.0000       1.945987        52.9530 
 104   0.0000       1.958789        53.3014 
 105   0.0000       1.996024        54.3146 
 106   0.0000       2.020561        54.9823 
 107   0.0000       2.049342        55.7654 
 108   0.0000       2.083785        56.7027 
 109   0.0000       2.114513        57.5388 
 110   0.0000       2.166934        58.9653 
 111   0.0000       2.202139        59.9232 
 112   0.0000       2.248445        61.1833 
 113   0.0000       2.272680        61.8428 
 114   0.0000       2.289675        62.3052 
 115   0.0000       2.324755        63.2598 
 116   0.0000       2.333146        63.4881 
 117   0.0000       2.407301        65.5060 
 118   0.0000       2.432116        66.1812 
 119   0.0000       2.505450        68.1768 
 120   0.0000       2.569355        69.9157 
 121   0.0000       2.592731        70.5518 
 122   0.0000       2.617131        71.2157 
 123   0.0000       2.655333        72.2553 
 124   0.0000       2.677396        72.8557 
 125   0.0000       2.697018        73.3896 
 126   0.0000       2.766163        75.2711 
 127   0.0000       2.816128        76.6307 
 128   0.0000       2.854139        77.6651 
 129   0.0000       2.890457        78.6533 
 130   0.0000       2.891936        78.6936 
 131   0.0000       2.918760        79.4235 
 132   0.0000       2.946916        80.1897 
 133   0.0000       2.973967        80.9258 
 134   0.0000       3.013700        82.0069 
 135   0.0000       3.026829        82.3642 
 136   0.0000       3.073641        83.6380 
 137   0.0000       3.088566        84.0441 
 138   0.0000       3.136862        85.3584 
 139   0.0000       3.179833        86.5276 
 140   0.0000       3.273965        89.0891 
 141   0.0000       3.470396        94.4343 
 142   0.0000       3.778167       102.8091 

                 SPIN DOWN ORBITALS
  NO   OCC          E(Eh)            E(eV) 
   0   1.0000     -19.242555      -523.6166 
   1   1.0000     -19.192247      -522.2476 
   2   1.0000     -10.279886      -279.7299 
   3   1.0000     -10.268815      -279.4287 
   4   1.0000     -10.241916      -278.6967 
   5   1.0000     -10.239535      -278.6319 
   6   1.0000     -10.227115      -278.2939 
   7   1.0000      -1.046577       -28.4788 
   8   1.0000      -0.921940       -25.0873 
   9   1.0000      -0.836239       -22.7552 
  10   1.0000      -0.737278       -20.0624 
  11   1.0000      -0.708154       -19.2698 
  12   1.0000      -0.573534       -15.6067 
  13   1.0000      -0.568613       -15.4728 
  14   1.0000      -0.536746       -14.6056 
  15   1.0000      -0.492963       -13.4142 
  16   1.0000      -0.470778       -12.8105 
  17   1.0000      -0.445460       -12.1216 
  18   1.0000      -0.406364       -11.0577 
  19   1.0000      -0.391903       -10.6642 
  20   1.0000      -0.384265       -10.4564 
  21   1.0000      -0.376646       -10.2491 
  22   1.0000      -0.368592       -10.0299 
  23   1.0000      -0.345555        -9.4030 
  24   1.0000      -0.330298        -8.9879 
  25   1.0000      -0.298788        -8.1304 
  26   1.0000      -0.248462        -6.7610 
  27   0.0000      -0.062665        -1.7052 
  28   0.0000       0.007526         0.2048 
  29   0.0000       0.071541         1.9467 
  30   0.0000       0.098363         2.6766 
  31   0.0000       0.115400         3.1402 
  32   0.0000       0.118636         3.2282 
  33   0.0000       0.128196         3.4884 
  34   0.0000       0.141035         3.8378 
  35   0.0000       0.150146         4.0857 
  36   0.0000       0.158184         4.3044 
  37   0.0000       0.177361         4.8262 
  38   0.0000       0.191868         5.2210 
  39   0.0000       0.205152         5.5825 
  40   0.0000       0.215343         5.8598 
  41   0.0000       0.253498         6.8980 
  42   0.0000       0.265814         7.2332 
  43   0.0000       0.316091         8.6013 
  44   0.0000       0.431307        11.7365 
  45   0.0000       0.462109        12.5746 
  46   0.0000       0.483875        13.1669 
  47   0.0000       0.499769        13.5994 
  48   0.0000       0.506976        13.7955 
  49   0.0000       0.541510        14.7352 
  50   0.0000       0.566371        15.4117 
  51   0.0000       0.598707        16.2916 
  52   0.0000       0.613325        16.6894 
  53   0.0000       0.619570        16.8594 
  54   0.0000       0.638970        17.3873 
  55   0.0000       0.643979        17.5235 
  56   0.0000       0.653982        17.7958 
  57   0.0000       0.665991        18.1225 
  58   0.0000       0.676196        18.4002 
  59   0.0000       0.689917        18.7736 
  60   0.0000       0.696042        18.9403 
  61   0.0000       0.699470        19.0336 
  62   0.0000       0.707388        19.2490 
  63   0.0000       0.715506        19.4699 
  64   0.0000       0.729551        19.8521 
  65   0.0000       0.744106        20.2481 
  66   0.0000       0.773247        21.0411 
  67   0.0000       0.795223        21.6391 
  68   0.0000       0.869796        23.6684 
  69   0.0000       0.945808        25.7367 
  70   0.0000       0.958154        26.0727 
  71   0.0000       0.994779        27.0693 
  72   0.0000       1.013633        27.5824 
  73   0.0000       1.051103        28.6020 
  74   0.0000       1.067895        29.0589 
  75   0.0000       1.099754        29.9258 
  76   0.0000       1.147203        31.2170 
  77   0.0000       1.208059        32.8730 
  78   0.0000       1.255838        34.1731 
  79   0.0000       1.303629        35.4735 
  80   0.0000       1.357119        36.9291 
  81   0.0000       1.366302        37.1790 
  82   0.0000       1.420103        38.6430 
  83   0.0000       1.477383        40.2016 
  84   0.0000       1.496420        40.7197 
  85   0.0000       1.540990        41.9325 
  86   0.0000       1.557158        42.3724 
  87   0.0000       1.573213        42.8093 
  88   0.0000       1.617866        44.0244 
  89   0.0000       1.626686        44.2644 
  90   0.0000       1.665488        45.3202 
  91   0.0000       1.690356        45.9969 
  92   0.0000       1.698587        46.2209 
  93   0.0000       1.751982        47.6739 
  94   0.0000       1.785057        48.5739 
  95   0.0000       1.792822        48.7852 
  96   0.0000       1.802101        49.0377 
  97   0.0000       1.813107        49.3371 
  98   0.0000       1.832359        49.8610 
  99   0.0000       1.851148        50.3723 
 100   0.0000       1.864245        50.7287 
 101   0.0000       1.925158        52.3862 
 102   0.0000       1.932107        52.5753 
 103   0.0000       1.949795        53.0566 
 104   0.0000       1.961223        53.3676 
 105   0.0000       2.005151        54.5629 
 106   0.0000       2.029184        55.2169 
 107   0.0000       2.055480        55.9325 
 108   0.0000       2.087078        56.7923 
 109   0.0000       2.117392        57.6172 
 110   0.0000       2.173199        59.1358 
 111   0.0000       2.207425        60.0671 
 112   0.0000       2.252737        61.3001 
 113   0.0000       2.281367        62.0792 
 114   0.0000       2.302900        62.6651 
 115   0.0000       2.327336        63.3300 
 116   0.0000       2.343810        63.7783 
 117   0.0000       2.416410        65.7539 
 118   0.0000       2.434384        66.2429 
 119   0.0000       2.513652        68.3999 
 120   0.0000       2.575838        70.0921 
 121   0.0000       2.593080        70.5613 
 122   0.0000       2.621382        71.3314 
 123   0.0000       2.672896        72.7332 
 124   0.0000       2.684412        73.0466 
 125   0.0000       2.705872        73.6305 
 126   0.0000       2.773725        75.4769 
 127   0.0000       2.817355        76.6641 
 128   0.0000       2.858063        77.7719 
 129   0.0000       2.893934        78.7479 
 130   0.0000       2.896990        78.8311 
 131   0.0000       2.918718        79.4224 
 132   0.0000       2.949702        80.2655 
 133   0.0000       2.987708        81.2997 
 134   0.0000       3.017423        82.1083 
 135   0.0000       3.033047        82.5334 
 136   0.0000       3.074719        83.6674 
 137   0.0000       3.105783        84.5126 
 138   0.0000       3.138745        85.4096 
 139   0.0000       3.185449        86.6805 
 140   0.0000       3.288217        89.4769 
 141   0.0000       3.469466        94.4090 
 142   0.0000       3.790462       103.1437 

                    ********************************
                    * MULLIKEN POPULATION ANALYSIS *
                    ********************************

--------------------------------------------
MULLIKEN ATOMIC CHARGES AND SPIN POPULATIONS
--------------------------------------------
   0 O :   -0.254673    0.500520
   1 O :   -0.306381   -0.133439
   2 C :    0.002861    0.030828
   3 C :    0.057166   -0.062205
   4 C :   -0.134487    0.665566
   5 C :    0.042670   -0.058916
   6 C :    0.055961    0.007036
   7 H :    0.165532   -0.010064
   8 H :    0.041530   -0.004918
   9 H :    0.055430    0.003759
  10 H :    0.044723    0.050423
  11 H :    0.043603   -0.030911
  12 H :    0.058340    0.013882
  13 H :    0.044022    0.030558
  14 H :    0.053154   -0.001622
  15 H :    0.030551   -0.000496
Sum of atomic charges         :    0.0000000
Sum of atomic spin populations:    1.0000000

-----------------------------------------------------
MULLIKEN REDUCED ORBITAL CHARGES AND SPIN POPULATIONS
-----------------------------------------------------
CHARGE
  0 O s       :     3.828827  s :     3.828827
      pz      :     1.367088  p :     4.416955
      px      :     1.143329
      py      :     1.906537
      dz2     :     0.004633  d :     0.008892
      dxz     :     0.000573
      dyz     :     0.001461
      dx2y2   :     0.001532
      dxy     :     0.000694
  1 O s       :     3.892316  s :     3.892316
      pz      :     1.362964  p :     4.399370
      px      :     1.168341
      py      :     1.868064
      dz2     :     0.006091  d :     0.014695
      dxz     :     0.002507
      dyz     :     0.002128
      dx2y2   :     0.002805
      dxy     :     0.001164
  2 C s       :     3.208043  s :     3.208043
      pz      :     0.747638  p :     2.714072
      px      :     0.973572
      py      :     0.992862
      dz2     :     0.021017  d :     0.075024
      dxz     :     0.017036
      dyz     :     0.015637
      dx2y2   :     0.009781
      dxy     :     0.011553
  3 C s       :     3.033982  s :     3.033982
      pz      :     0.966782  p :     2.872171
      px      :     0.936749
      py      :     0.968640
      dz2     :     0.006741  d :     0.036681
      dxz     :     0.008482
      dyz     :     0.007128
      dx2y2   :     0.008089
      dxy     :     0.006240
  4 C s       :     3.353161  s :     3.353161
      pz      :     0.939261  p :     2.743778
      px      :     0.818447
      py      :     0.986071
      dz2     :     0.006960  d :     0.037548
      dxz     :     0.006802
      dyz     :     0.010434
      dx2y2   :     0.007981
      dxy     :     0.005370
  5 C s       :     2.942598  s :     2.942598
      pz      :     1.015526  p :     2.978553
      px      :     1.016656
      py      :     0.946370
      dz2     :     0.005551  d :     0.036179
      dxz     :     0.007076
      dyz     :     0.008895
      dx2y2   :     0.008448
      dxy     :     0.006210
  6 C s       :     2.955814  s :     2.955814
      pz      :     0.980735  p :     2.954890
      px      :     0.999501
      py      :     0.974654
      dz2     :     0.008804  d :     0.033335
      dxz     :     0.007228
      dyz     :     0.003252
      dx2y2   :     0.005791
      dxy     :     0.008260
  7 H s       :     0.766514  s :     0.766514
      pz      :     0.034449  p :     0.067954
      px      :     0.011303
      py      :     0.022202
  8 H s       :     0.936913  s :     0.936913
      pz      :     0.006489  p :     0.021557
      px      :     0.009934
      py      :     0.005134
  9 H s       :     0.921419  s :     0.921419
      pz      :     0.005130  p :     0.023151
      px      :     0.004259
      py      :     0.013762
 10 H s       :     0.932133  s :     0.932133
      pz      :     0.010856  p :     0.023144
      px      :     0.008149
      py      :     0.004139
 11 H s       :     0.932182  s :     0.932182
      pz      :     0.012935  p :     0.024215
      px      :     0.006884
      py      :     0.004396
 12 H s       :     0.918430  s :     0.918430
      pz      :     0.009970  p :     0.023230
      px      :     0.005297
      py      :     0.007963
 13 H s       :     0.932344  s :     0.932344
      pz      :     0.005921  p :     0.023633
      px      :     0.011924
      py      :     0.005788
 14 H s       :     0.923529  s :     0.923529
      pz      :     0.004491  p :     0.023317
      px      :     0.010474
      py      :     0.008351
 15 H s       :     0.946324  s :     0.946324
      pz      :     0.012982  p :     0.023126
      px      :     0.005670
      py      :     0.004473

SPIN
  0 O s       :     0.003877  s :     0.003877
      pz      :     0.008550  p :     0.496526
      px      :     0.492713
      py      :    -0.004736
      dz2     :     0.000007  d :     0.000117
      dxz     :     0.000123
      dyz     :     0.000031
      dx2y2   :    -0.000042
      dxy     :    -0.000003
  1 O s       :     0.018233  s :     0.018233
      pz      :     0.003013  p :    -0.152889
      px      :    -0.198321
      py      :     0.042419
      dz2     :     0.000154  d :     0.001218
      dxz     :    -0.000044
      dyz     :    -0.000040
      dx2y2   :     0.001123
      dxy     :     0.000023
  2 C s       :     0.001854  s :     0.001854
      pz      :     0.005142  p :     0.029138
      px      :     0.014226
      py      :     0.009770
      dz2     :    -0.000292  d :    -0.000164
      dxz     :    -0.000027
      dyz     :     0.000139
      dx2y2   :    -0.000152
      dxy     :     0.000167
  3 C s       :    -0.017238  s :    -0.017238
      pz      :    -0.024543  p :    -0.050146
      px      :    -0.014087
      py      :    -0.011516
      dz2     :     0.001731  d :     0.005179
      dxz     :     0.002913
      dyz     :     0.000188
      dx2y2   :     0.000061
      dxy     :     0.000285
  4 C s       :     0.081831  s :     0.081831
      pz      :     0.088173  p :     0.585459
      px      :     0.475556
      py      :     0.021729
      dz2     :    -0.000225  d :    -0.001723
      dxz     :    -0.000724
      dyz     :    -0.000134
      dx2y2   :    -0.000836
      dxy     :     0.000196
  5 C s       :    -0.017681  s :    -0.017681
      pz      :    -0.006387  p :    -0.045303
      px      :    -0.013773
      py      :    -0.025143
      dz2     :     0.000011  d :     0.004068
      dxz     :     0.000578
      dyz     :     0.000885
      dx2y2   :     0.000004
      dxy     :     0.002590
  6 C s       :     0.001016  s :     0.001016
      pz      :     0.003144  p :     0.006074
      px      :     0.003363
      py      :    -0.000433
      dz2     :    -0.000092  d :    -0.000054
      dxz     :    -0.000005
      dyz     :     0.000030
      dx2y2   :     0.000044
      dxy     :    -0.000032
  7 H s       :    -0.013851  s :    -0.013851
      pz      :     0.000142  p :     0.003787
      px      :     0.004105
      py      :    -0.000461
  8 H s       :    -0.005169  s :    -0.005169
      pz      :     0.000100  p :     0.000251
      px      :     0.000088
      py      :     0.000063
  9 H s       :     0.003905  s :     0.003905
      pz      :    -0.000098  p :    -0.000146
      px      :     0.000002
      py      :    -0.000050
 10 H s       :     0.050859  s :     0.050859
      pz      :    -0.000383  p :    -0.000436
      px      :    -0.000133
      py      :     0.000080
 11 H s       :    -0.034963  s :    -0.034963
      pz      :     0.000937  p :     0.004052
      px      :     0.003160
      py      :    -0.000045
 12 H s       :     0.014080  s :     0.014080
      pz      :    -0.000037  p :    -0.000198
      px      :    -0.000004
      py      :    -0.000157
 13 H s       :     0.030722  s :     0.030722
      pz      :    -0.000013  p :    -0.000164
      px      :     0.000001
      py      :    -0.000151
 14 H s       :    -0.001707  s :    -0.001707
      pz      :     0.000015  p :     0.000084
      px      :     0.000043
      py      :     0.000026
 15 H s       :    -0.000502  s :    -0.000502
      pz      :     0.000015  p :     0.000005
      px      :    -0.000005
      py      :    -0.000004


                     *******************************
                     * LOEWDIN POPULATION ANALYSIS *
                     *******************************

-------------------------------------------
LOEWDIN ATOMIC CHARGES AND SPIN POPULATIONS
-------------------------------------------
   0 O :   -0.158692    0.461866
   1 O :   -0.115794   -0.088328
   2 C :    0.056042    0.026317
   3 C :   -0.049876   -0.012745
   4 C :    0.077534    0.538618
   5 C :   -0.046822   -0.011369
   6 C :   -0.044370    0.005126
   7 H :    0.049425    0.006110
   8 H :    0.015956   -0.002326
   9 H :    0.034953    0.002720
  10 H :    0.026572    0.037288
  11 H :    0.020309    0.001991
  12 H :    0.039166    0.010057
  13 H :    0.036229    0.025504
  14 H :    0.034934   -0.000698
  15 H :    0.024435   -0.000132

----------------------------------------------------
LOEWDIN REDUCED ORBITAL CHARGES AND SPIN POPULATIONS
----------------------------------------------------
CHARGE
  0 O s       :     3.635912  s :     3.635912
      pz      :     1.465352  p :     4.506680
      px      :     1.156320
      py      :     1.885008
      dz2     :     0.009462  d :     0.016099
      dxz     :     0.000674
      dyz     :     0.002073
      dx2y2   :     0.002746
      dxy     :     0.001145
  1 O s       :     3.641597  s :     3.641597
      pz      :     1.437684  p :     4.448632
      px      :     1.152721
      py      :     1.858228
      dz2     :     0.010422  d :     0.025565
      dxz     :     0.004733
      dyz     :     0.003231
      dx2y2   :     0.005313
      dxy     :     0.001866
  2 C s       :     2.861445  s :     2.861445
      pz      :     0.866847  p :     2.914356
      px      :     1.016510
      py      :     1.030998
      dz2     :     0.049793  d :     0.168156
      dxz     :     0.036653
      dyz     :     0.031543
      dx2y2   :     0.022724
      dxy     :     0.027443
  3 C s       :     2.844715  s :     2.844715
      pz      :     1.043165  p :     3.108918
      px      :     1.027130
      py      :     1.038624
      dz2     :     0.017787  d :     0.096243
      dxz     :     0.022833
      dyz     :     0.018848
      dx2y2   :     0.020803
      dxy     :     0.015972
  4 C s       :     2.926317  s :     2.926317
      pz      :     1.033036  p :     2.910309
      px      :     0.832776
      py      :     1.044497
      dz2     :     0.016583  d :     0.085841
      dxz     :     0.014413
      dyz     :     0.026598
      dx2y2   :     0.017552
      dxy     :     0.010695
  5 C s       :     2.833750  s :     2.833750
      pz      :     1.050175  p :     3.120425
      px      :     1.043806
      py      :     1.026444
      dz2     :     0.012312  d :     0.092647
      dxz     :     0.019296
      dyz     :     0.023026
      dx2y2   :     0.023497
      dxy     :     0.014515
  6 C s       :     2.848075  s :     2.848075
      pz      :     1.035486  p :     3.111014
      px      :     1.039124
      py      :     1.036404
      dz2     :     0.022867  d :     0.085281
      dxz     :     0.019247
      dyz     :     0.007035
      dx2y2   :     0.015438
      dxy     :     0.020694
  7 H s       :     0.763778  s :     0.763778
      pz      :     0.096663  p :     0.186797
      px      :     0.031408
      py      :     0.058726
  8 H s       :     0.914345  s :     0.914345
      pz      :     0.021722  p :     0.069700
      px      :     0.030718
      py      :     0.017259
  9 H s       :     0.894964  s :     0.894964
      pz      :     0.015732  p :     0.070083
      px      :     0.014317
      py      :     0.040034
 10 H s       :     0.904103  s :     0.904103
      pz      :     0.031352  p :     0.069325
      px      :     0.025211
      py      :     0.012763
 11 H s       :     0.901300  s :     0.901300
      pz      :     0.038627  p :     0.078390
      px      :     0.023694
      py      :     0.016069
 12 H s       :     0.891756  s :     0.891756
      pz      :     0.029463  p :     0.069079
      px      :     0.015945
      py      :     0.023670
 13 H s       :     0.894529  s :     0.894529
      pz      :     0.017930  p :     0.069242
      px      :     0.034121
      py      :     0.017192
 14 H s       :     0.894430  s :     0.894430
      pz      :     0.013616  p :     0.070637
      px      :     0.030306
      py      :     0.026715
 15 H s       :     0.905581  s :     0.905581
      pz      :     0.037380  p :     0.069985
      px      :     0.017470
      py      :     0.015134

SPIN
  0 O s       :     0.005092  s :     0.005092
      pz      :     0.003677  p :     0.456865
      px      :     0.458032
      py      :    -0.004845
      dz2     :    -0.000018  d :    -0.000090
      dxz     :    -0.000008
      dyz     :    -0.000024
      dx2y2   :     0.000033
      dxy     :    -0.000074
  1 O s       :     0.037217  s :     0.037217
      pz      :     0.004068  p :    -0.128768
      px      :    -0.174767
      py      :     0.041930
      dz2     :     0.000477  d :     0.003224
      dxz     :     0.000013
      dyz     :    -0.000003
      dx2y2   :     0.002634
      dxy     :     0.000102
  2 C s       :     0.003021  s :     0.003021
      pz      :     0.004014  p :     0.024567
      px      :     0.013143
      py      :     0.007409
      dz2     :    -0.001217  d :    -0.001271
      dxz     :    -0.000107
      dyz     :     0.000223
      dx2y2   :    -0.000298
      dxy     :     0.000128
  3 C s       :    -0.004157  s :    -0.004157
      pz      :    -0.011572  p :    -0.022344
      px      :    -0.004933
      py      :    -0.005839
      dz2     :     0.004474  d :     0.013756
      dxz     :     0.007341
      dyz     :     0.000964
      dx2y2   :     0.000236
      dxy     :     0.000741
  4 C s       :     0.024441  s :     0.024441
      pz      :     0.082270  p :     0.517443
      px      :     0.421485
      py      :     0.013689
      dz2     :    -0.000729  d :    -0.003267
      dxz     :    -0.000546
      dyz     :    -0.000652
      dx2y2   :    -0.001418
      dxy     :     0.000078
  5 C s       :    -0.003187  s :    -0.003187
      pz      :    -0.002847  p :    -0.019145
      px      :    -0.005085
      py      :    -0.011213
      dz2     :     0.000196  d :     0.010962
      dxz     :     0.001585
      dyz     :     0.002435
      dx2y2   :     0.000439
      dxy     :     0.006308
  6 C s       :     0.000841  s :     0.000841
      pz      :     0.001986  p :     0.004404
      px      :     0.002507
      py      :    -0.000089
      dz2     :    -0.000210  d :    -0.000120
      dxz     :    -0.000027
      dyz     :     0.000053
      dx2y2   :     0.000132
      dxy     :    -0.000068
  7 H s       :    -0.008670  s :    -0.008670
      pz      :     0.001485  p :     0.014780
      px      :     0.013869
      py      :    -0.000574
  8 H s       :    -0.003491  s :    -0.003491
      pz      :     0.000106  p :     0.001165
      px      :     0.000714
      py      :     0.000345
  9 H s       :     0.003368  s :     0.003368
      pz      :    -0.000347  p :    -0.000648
      px      :    -0.000063
      py      :    -0.000238
 10 H s       :     0.038080  s :     0.038080
      pz      :    -0.000604  p :    -0.000792
      px      :    -0.000313
      py      :     0.000125
 11 H s       :    -0.015460  s :    -0.015460
      pz      :     0.003799  p :     0.017451
      px      :     0.013184
      py      :     0.000468
 12 H s       :     0.010743  s :     0.010743
      pz      :    -0.000247  p :    -0.000686
      px      :    -0.000045
      py      :    -0.000394
 13 H s       :     0.026065  s :     0.026065
      pz      :    -0.000028  p :    -0.000561
      px      :    -0.000386
      py      :    -0.000148
 14 H s       :    -0.001027  s :    -0.001027
      pz      :     0.000115  p :     0.000330
      px      :     0.000130
      py      :     0.000085
 15 H s       :    -0.000218  s :    -0.000218
      pz      :     0.000101  p :     0.000087
      px      :     0.000016
      py      :    -0.000030


                      *****************************
                      * MAYER POPULATION ANALYSIS *
                      *****************************

  NA   - Mulliken gross atomic population
  ZA   - Total nuclear charge
  QA   - Mulliken gross atomic charge
  VA   - Mayer's total valence
  BVA  - Mayer's bonded valence
  FA   - Mayer's free valence

  ATOM       NA         ZA         QA         VA         BVA        FA
  0 O      8.2547     8.0000    -0.2547     2.0119     1.7580     0.2539
  1 O      8.3064     8.0000    -0.3064     2.0451     1.9800     0.0651
  2 C      5.9971     6.0000     0.0029     3.9941     3.9932     0.0009
  3 C      5.9428     6.0000     0.0572     3.8490     3.8472     0.0018
  4 C      6.1345     6.0000    -0.1345     3.9716     3.6577     0.3139
  5 C      5.9573     6.0000     0.0427     3.9578     3.9563     0.0015
  6 C      5.9440     6.0000     0.0560     3.9652     3.9651     0.0000
  7 H      0.8345     1.0000     0.1655     1.0137     1.0133     0.0004
  8 H      0.9585     1.0000     0.0415     1.0051     1.0051     0.0000
  9 H      0.9446     1.0000     0.0554     0.9885     0.9885     0.0000
 10 H      0.9553     1.0000     0.0447     0.9758     0.9732     0.0027
 11 H      0.9564     1.0000     0.0436     0.9950     0.9937     0.0013
 12 H      0.9417     1.0000     0.0583     0.9807     0.9805     0.0002
 13 H      0.9560     1.0000     0.0440     0.9764     0.9754     0.0010
 14 H      0.9468     1.0000     0.0532     0.9931     0.9931     0.0000
 15 H      0.9694     1.0000     0.0306     0.9786     0.9786     0.0000

  Mayer bond orders larger than 0.100000
B(  0-O ,  1-O ) :   0.5777 B(  0-O ,  4-C ) :   0.1096 B(  0-O ,  7-H ) :   0.9867 
B(  1-O ,  2-C ) :   0.9113 B(  1-O ,  4-C ) :   0.4135 B(  2-C ,  3-C ) :   0.9904 
B(  2-C ,  6-C ) :   1.0348 B(  2-C ,  8-H ) :   0.9548 B(  3-C ,  4-C ) :   0.9970 
B(  3-C ,  9-H ) :   0.9432 B(  3-C , 10-H ) :   0.9289 B(  4-C ,  5-C ) :   1.0543 
B(  4-C , 11-H ) :   0.9888 B(  5-C ,  6-C ) :   1.0642 B(  5-C , 12-H ) :   0.9309 
B(  5-C , 13-H ) :   0.9132 B(  6-C , 14-H ) :   0.9314 B(  6-C , 15-H ) :   0.9354 



------------------
HIRSHFELD ANALYSIS
------------------

Total integrated alpha density =     27.999943352
Total integrated beta density  =     26.999949100

  ATOM     CHARGE      SPIN    
   0 O   -0.250230    0.446155
   1 O   -0.128774   -0.061058
   2 C    0.061517    0.022030
   3 C   -0.052693    0.023486
   4 C    0.052001    0.426173
   5 C   -0.045490    0.022087
   6 C   -0.047958    0.006148
   7 H    0.145910    0.013714
   8 H    0.035722   -0.000929
   9 H    0.035038    0.003766
  10 H    0.028832    0.034554
  11 H    0.043251    0.027945
  12 H    0.034884    0.010435
  13 H    0.030391    0.025031
  14 H    0.033019    0.000056
  15 H    0.024689    0.000402

  TOTAL   0.000108    0.999994

-------
TIMINGS
-------

Total SCF time: 0 days 0 hours 0 min 9 sec 

Total time                  ....       9.447 sec
Sum of individual times     ....       9.304 sec  ( 98.5%)

Fock matrix formation       ....       8.329 sec  ( 88.2%)
  Split-RI-J                ....       0.763 sec  (  9.2% of F)
  Chain of spheres X        ....       5.431 sec  ( 65.2% of F)
  XC integration            ....       2.055 sec  ( 24.7% of F)
    Basis function eval.    ....       0.552 sec  ( 26.9% of XC)
    Density eval.           ....       0.541 sec  ( 26.3% of XC)
    XC-Functional eval.     ....       0.182 sec  (  8.8% of XC)
    XC-Potential eval.      ....       0.614 sec  ( 29.9% of XC)
Diagonalization             ....       0.153 sec  (  1.6%)
Density matrix formation    ....       0.008 sec  (  0.1%)
Population analysis         ....       0.167 sec  (  1.8%)
Initial guess               ....       0.042 sec  (  0.4%)
Orbital Transformation      ....       0.000 sec  (  0.0%)
Orbital Orthonormalization  ....       0.000 sec  (  0.0%)
DIIS solution               ....       0.101 sec  (  1.1%)
Grid generation             ....       0.503 sec  (  5.3%)

Maximum memory used throughout the entire SCF-calculation: 52.0 MB


-------------------------------------------------------------------------------
                          DFT DISPERSION CORRECTION                            
                                                                               
                              DFTD3 V3.1  Rev 1                                
                          USING Becke-Johnson damping                          
-------------------------------------------------------------------------------
The PBE0 functional is recognized
Active option DFTDOPT                   ...         4   

molecular C6(AA) [au] = 1942.552260 


            DFT-D V3
 parameters
 s6 scaling factor         :     1.0000 
 a1 scaling factor         :     0.4145 
 s8 scaling factor         :     1.2177 
 a2 scaling factor         :     4.8593 
 ad hoc parameters k1-k3   :    16.0000     1.3333    -4.0000 

 Edisp/kcal,au: -7.187676501635  -0.011454290384 
 E6   /kcal   :  -4.630358825 
 E8   /kcal   :  -2.557317677 
 % E8         :  35.579198312 

-------------------------   ----------------
Dispersion correction           -0.011454290
-------------------------   ----------------


-------------------------   --------------------
FINAL SINGLE POINT ENERGY      -345.558563232672
-------------------------   --------------------


                            ***************************************
                            *     ORCA property calculations      *
                            ***************************************

                                    ---------------------
                                    Active property flags
                                    ---------------------
   (+) Dipole Moment


------------------------------------------------------------------------------
                       ORCA ELECTRIC PROPERTIES CALCULATION
------------------------------------------------------------------------------

Dipole Moment Calculation                       ... on
Quadrupole Moment Calculation                   ... off
Polarizability Calculation                      ... off
GBWName                                         ... vdwLSy_ll_ad_1-4_0-1_hess_orca.gbw
Electron density                                ... vdwLSy_ll_ad_1-4_0-1_hess_orca.scfp
The origin for moment calculation is the CENTER OF MASS  = ( 0.558954, -0.194895  0.290071)

-------------
DIPOLE MOMENT
-------------
                                X             Y             Z
Electronic contribution:      2.87328      -1.53338       2.02423
Nuclear contribution   :     -3.79644       1.49586      -2.03317
                        -----------------------------------------
Total Dipole Moment    :     -0.92316      -0.03752      -0.00894
                        -----------------------------------------
Magnitude (a.u.)       :      0.92397
Magnitude (Debye)      :      2.34854



--------------------
Rotational spectrum 
--------------------
 
Rotational constants in cm-1:     0.148016     0.073816     0.067503 
Rotational constants in MHz :  4437.402151  2212.946752  2023.686653 

 Dipole components along the rotational axes: 
x,y,z [a.u.] :    -0.879858    -0.212596    -0.185387 
x,y,z [Debye]:    -2.236421    -0.540377    -0.471216 

 


           ************************************************************
           *        Program running with 8 parallel MPI-processes     *
           *              working on a common directory               *
           ************************************************************

-------------------------------------------------------------------------------
                               ORCA SCF HESSIAN
-------------------------------------------------------------------------------

                   --------- SHARK INITIALIZATION DONE ---------

Hessian of the Kohn-Sham DFT energy:
Kohn-Sham wavefunction type                      ... UKS
Hartree-Fock exchange scaling                    ...    0.250
Number of operators                              ...    2
Number of atoms                                  ...   16
Basis set dimensions                             ...  143
Integral neglect threshold                       ... 1.0e-10
Integral primitive cutoff                        ... 1.0e-11

Setting up DFT Hessian calculations              ... 

HESS GRID
---------

General Integration Accuracy     IntAcc      ... 4.629
Radial Grid Type                 RadialGrid  ... OptM3 with GC (2021)
Angular Grid (max. ang.)         AngularGrid ... 5 (Lebedev-434)
Angular grid pruning method      GridPruning ... 4 (adaptive)
Weight generation scheme         WeightScheme... Becke
Basis function cutoff            BFCut       ... 1.0000e-10
Integration weight cutoff        WCut        ... 1.0000e-14
Angular grids for H and He will be reduced by one unit
Partially contracted basis set               ... off
Rotationally invariant grid construction     ... off

Total number of grid points                  ...   110109
Total number of batches                      ...     1727
Average number of points per batch           ...       63
Average number of grid points per atom       ...     6882

Building densities                               ... done   (      0.0 sec)
Calculating rho(r) on the grid                   ... done   (      0.1 sec)
Building xc-kernel on the grid                   ... done   (      0.0 sec)
                                                     done   (      0.8 sec)

Nuclear repulsion Hessian  (SHARK)               ... done   (      0.0 sec)

----------------------------------------------
Forming right-hand sides of CP-SCF equations     ...
----------------------------------------------
One electron integral derivatives  (SHARK)       ... done   (      0.0 sec)
Transforming the overlap derivative matrices     ... done   (      0.0 sec)
Making the Q(x) pseudodensities                  ... done   (      0.0 sec)
Adding the E*S(x)*S(y) terms to the Hessian      ... done   (      0.0 sec)
Calculating energy weighted overlap derivatives  ... done   (      0.0 sec)
Two electron integral derivatives (SHARK-RI)     ... done   (      2.4 sec)
Exchange-correlation integral derivatives        ... done   (     14.0 sec)
tr(F(y)Q(x)) contribution to the Hessian         ... done   (      0.0 sec)
Response fock operator R(S(x)) (SHARK-RIJCOSX)   ... done   (      2.4 sec)
XC Response fock operator R(S(x))                ... done   (      4.3 sec)
tr(F(y)S(x)) contribution to the Hessian         ... done   (      0.0 sec)
Transforming and finalizing RHSs                 ... done   (      0.0 sec)

----------------------------------------------
Solving the CP-SCF equations (RIJCOSX)           ...
----------------------------------------------
     CP-SCF ITERATION   0:   4.6333e-01 (   1.6 sec   0/ 48 done)
     CP-SCF ITERATION   1:   2.1442e-01 (   1.6 sec   0/ 48 done)
     CP-SCF ITERATION   2:   9.8777e-02 (   1.6 sec   0/ 48 done)
     CP-SCF ITERATION   3:   3.5091e-02 (   1.6 sec   2/ 48 done)
     CP-SCF ITERATION   4:   2.3029e-02 (   1.5 sec   9/ 48 done)
     CP-SCF ITERATION   5:   1.0789e-02 (   1.3 sec  23/ 48 done)
     CP-SCF ITERATION   6:   4.4245e-03 (   0.9 sec  35/ 48 done)
     CP-SCF ITERATION   7:   2.4538e-03 (   0.7 sec  39/ 48 done)
     CP-SCF ITERATION   8:   9.3333e-04 (   0.5 sec  48/ 48 done)
                    *** THE CP-SCF HAS CONVERGED ***

                                                 ... done   (     11.5 sec)
Forming perturbed density Hessian contributions  ... done   (      0.0 sec)
2nd integral derivative contribs (SHARK-RI)      ... done   (      9.3 sec)
Exchange-correlation Hessian                     ... done   (      9.2 sec)
Dispersion correction in the Hessian             ... done   (      0.4 sec)
Dipole derivatives                               ... (center of mass:  0.558954, -0.194895  0.290071)done   (      0.1 sec)

Total SCF Hessian time: 0 days 0 hours 0 min 54 sec 

Writing the Hessian file to the disk             ... done


Maximum memory used throughout the entire SCFHESS-calculation: 129.2 MB

-----------------------
VIBRATIONAL FREQUENCIES
-----------------------

Scaling factor for frequencies =  1.000000000  (already applied!)

   0:         0.00 cm**-1
   1:         0.00 cm**-1
   2:         0.00 cm**-1
   3:         0.00 cm**-1
   4:         0.00 cm**-1
   5:         0.00 cm**-1
   6:      -815.25 cm**-1 ***imaginary mode***
   7:      -403.79 cm**-1 ***imaginary mode***
   8:        87.41 cm**-1
   9:       121.42 cm**-1
  10:       235.01 cm**-1
  11:       296.76 cm**-1
  12:       370.59 cm**-1
  13:       455.87 cm**-1
  14:       531.85 cm**-1
  15:       717.49 cm**-1
  16:       751.23 cm**-1
  17:       795.98 cm**-1
  18:       883.00 cm**-1
  19:       886.76 cm**-1
  20:       910.99 cm**-1
  21:       919.47 cm**-1
  22:       949.42 cm**-1
  23:       966.78 cm**-1
  24:      1015.62 cm**-1
  25:      1023.07 cm**-1
  26:      1060.02 cm**-1
  27:      1123.41 cm**-1
  28:      1146.14 cm**-1
  29:      1178.64 cm**-1
  30:      1224.01 cm**-1
  31:      1245.04 cm**-1
  32:      1253.59 cm**-1
  33:      1276.96 cm**-1
  34:      1323.10 cm**-1
  35:      1339.58 cm**-1
  36:      1413.87 cm**-1
  37:      1425.11 cm**-1
  38:      1447.81 cm**-1
  39:      3135.40 cm**-1
  40:      3140.36 cm**-1
  41:      3195.43 cm**-1
  42:      3224.65 cm**-1
  43:      3236.03 cm**-1
  44:      3272.04 cm**-1
  45:      3276.58 cm**-1
  46:      3405.94 cm**-1
  47:      3979.07 cm**-1


------------
NORMAL MODES
------------

These modes are the Cartesian displacements weighted by the diagonal matrix
M(i,i)=1/sqrt(m[i]) where m[i] is the mass of the displaced atom
Thus, these vectors are normalized but *not* orthogonal

                  0          1          2          3          4          5    
      0       0.000000   0.000000   0.000000   0.000000   0.000000   0.000000
      1       0.000000   0.000000   0.000000   0.000000   0.000000   0.000000
[...]
     33      -0.036732   0.011055  -0.017257  -0.020031  -0.011210  -0.039969
     34       0.279637  -0.275692   0.010667  -0.125622  -0.100773   0.558982
     35       0.148902  -0.063022   0.073202   0.023537   0.061098   0.177233
     36      -0.002480  -0.217136  -0.322752  -0.150555  -0.284050  -0.018679
     37       0.041876  -0.220184  -0.234739  -0.145247  -0.294218   0.173831
     38      -0.037854   0.251203   0.337835   0.163418   0.365749  -0.020000
     39       0.178294   0.065233  -0.023099  -0.095209  -0.149788  -0.069865
     40       0.179589  -0.005091  -0.056732  -0.010924  -0.157120   0.010983
     41      -0.198428  -0.035539   0.052433   0.151702   0.187409   0.041907
     42       0.127494  -0.320322   0.171890  -0.108064  -0.139364  -0.285447
     43      -0.108745   0.395714  -0.255272   0.091506   0.037284   0.317094
     44      -0.056450   0.136887  -0.055680   0.084679   0.137420   0.027627
     45       0.242406   0.201904   0.338400  -0.315350   0.020142  -0.032732
     46      -0.248473  -0.186786  -0.236810   0.396750  -0.081863   0.204413
     47      -0.154320  -0.128397  -0.194314   0.142362   0.024782   0.043571
                 36         37         38         39         40         41    
      0       0.000254   0.000826  -0.000437  -0.000134   0.000102   0.000032
      1       0.000124   0.000579  -0.000300  -0.000061   0.000001   0.000050
      2       0.000036  -0.000434  -0.000429   0.000003  -0.000100  -0.000007
      3      -0.000070  -0.000132   0.001699   0.000493  -0.000534  -0.000123
      4      -0.000208  -0.000342   0.000050  -0.000020   0.000094  -0.000000
      5       0.004496   0.006155   0.006194  -0.000076  -0.000127  -0.000362
      6       0.001142   0.015416   0.011922   0.000313   0.001108   0.007349
      7       0.004025   0.016752  -0.005888  -0.000604  -0.002467  -0.002333
      8      -0.011626  -0.013856  -0.010598  -0.000194  -0.000801  -0.005974
      9      -0.009089  -0.034369  -0.016523   0.007336   0.044506   0.001301
     10      -0.002082  -0.084647  -0.033076   0.003181   0.019801   0.001253
     11       0.005544  -0.053810  -0.021173   0.008367   0.053350   0.001372
     12       0.006934  -0.012753  -0.008985  -0.000306   0.000667   0.000069
     13      -0.009791   0.029949  -0.006224   0.000263  -0.000492   0.000171
     14      -0.010371   0.021310   0.011177  -0.001077   0.000043   0.000140
     15       0.033131   0.016068  -0.018666  -0.058412   0.008926   0.004539
     16      -0.054374  -0.020201   0.046334   0.042771  -0.006869  -0.003476
     17      -0.018678  -0.012453   0.008620  -0.006457   0.001090  -0.002104
     18       0.017049  -0.020808   0.022851   0.000903  -0.000565  -0.010061
     19       0.019400  -0.018799   0.049006  -0.002477   0.001267  -0.037745
     20      -0.027504   0.030802  -0.049650   0.003328  -0.003302   0.057415
     21      -0.002376  -0.005299  -0.006223   0.000062  -0.000625   0.000132
     22      -0.002705  -0.002462  -0.001351   0.000182  -0.000158   0.000106
     23      -0.000659  -0.000806  -0.000423  -0.000264   0.000484   0.000151
     24       0.011929  -0.016848   0.000945  -0.001941  -0.026671  -0.089361
     25      -0.008346  -0.074953   0.007470   0.000966   0.015835   0.040634
     26       0.006616  -0.002284  -0.041257   0.001785   0.023707   0.075752
     27       0.027506   0.370333   0.168819   0.008873   0.051742   0.001960
     28       0.011668   0.135639   0.067155  -0.048042  -0.287334  -0.014730
     29       0.030022   0.489345   0.226344   0.015888   0.093420   0.003824
     30       0.024805   0.009124   0.011424  -0.093216  -0.571803  -0.017453
     31       0.046520   0.632713   0.283089   0.011304   0.065288   0.001866
     32      -0.016041  -0.015026  -0.013305  -0.117857  -0.735603  -0.021778
     33       0.010095  -0.006367  -0.019865  -0.005676   0.005563   0.003035
     34       0.016992  -0.083146   0.009465   0.000607   0.001402   0.000894
     35      -0.003152  -0.009323   0.017578   0.008813  -0.002145  -0.004374
     36      -0.494564  -0.115751   0.268594  -0.110131   0.017734   0.012418
     37       0.341314   0.024171  -0.177594  -0.196104   0.032056   0.023529
     38      -0.127466   0.003010   0.075589  -0.254809   0.040624   0.029653
     39       0.034439   0.000549  -0.028738   0.795487  -0.125371  -0.052584
     40       0.451359   0.064752  -0.247064  -0.307393   0.050993   0.018241
     41       0.402059   0.093051  -0.219153   0.349224  -0.055435  -0.021818
     42       0.038100  -0.016147   0.072357   0.021734  -0.012496   0.416859
     43      -0.087692   0.042531  -0.137037   0.019913  -0.010140   0.357214
     44       0.330130  -0.269473   0.524004   0.004743  -0.004034   0.088078
     45      -0.238730   0.203671  -0.375318  -0.023123   0.017693  -0.311669
     46      -0.257518   0.173865  -0.397782   0.005870  -0.003376   0.073455
     47       0.052891  -0.045588   0.073415  -0.053640   0.042274  -0.749528
                 42         43         44         45         46         47    
      0      -0.000224  -0.000330  -0.000148  -0.000082   0.000888   0.007004
      1      -0.000017  -0.000010  -0.000005  -0.000032   0.000159  -0.015889
      2       0.000015  -0.000441  -0.000038   0.000005  -0.000046   0.061052
      3       0.000142   0.000010   0.000105  -0.000021  -0.001409  -0.000070
      4      -0.000071  -0.000070   0.000251   0.000071   0.000059   0.000073
      5      -0.000135   0.000080   0.000078  -0.000343  -0.000307  -0.000511
      6      -0.000763  -0.062181   0.004480   0.002148   0.000760  -0.000498
      7       0.000352   0.030595  -0.001976  -0.000511  -0.000048  -0.000018
      8       0.000742   0.049982  -0.002822  -0.000413   0.000223   0.000344
      9       0.000510   0.005417   0.025082   0.003113   0.000999   0.000006
     10      -0.000409  -0.003303  -0.078066  -0.009066  -0.004316   0.000056
     11       0.000002   0.004476   0.039069   0.005237  -0.001171  -0.000113
     12       0.000854   0.000792   0.001124   0.000212  -0.036474  -0.000390
     13      -0.000255   0.000180   0.001574   0.000215  -0.024852  -0.000078
     14      -0.000685  -0.000205  -0.001332  -0.000286   0.075137   0.000096
     15       0.045016   0.000703  -0.000742   0.004695   0.000044  -0.000024
     16       0.039146  -0.001619  -0.000025   0.003431   0.003789  -0.000019
     17       0.068255  -0.001286  -0.000671   0.006959   0.000110  -0.000022
     18      -0.007018   0.000097  -0.007849   0.068533   0.000660   0.000008
     19      -0.005416  -0.005526  -0.004060   0.040481   0.000519   0.000009
     20      -0.004898   0.008078  -0.006051   0.050997  -0.000384   0.000017
     21      -0.000166   0.000338  -0.000474  -0.000499   0.000211  -0.102258
     22       0.000300  -0.001341  -0.000128   0.000042  -0.000319   0.251663
     23      -0.000103   0.003237  -0.000425  -0.000314   0.001486  -0.960294
     24       0.010005   0.712026  -0.044740  -0.016663   0.000707   0.002300
     25      -0.004947  -0.349165   0.021287   0.007938  -0.000260  -0.001474
     26      -0.008299  -0.585008   0.034393   0.012029  -0.002129  -0.001935
     27      -0.000140  -0.008480  -0.129667  -0.014656  -0.005329   0.000259
     28       0.000931   0.043684   0.899469   0.099921   0.033172  -0.000212
     29      -0.000564  -0.012684  -0.257819  -0.029336  -0.005780  -0.000101
     30      -0.000637  -0.037002  -0.175252  -0.026864  -0.005897  -0.000440
     31      -0.000520   0.002152   0.009959   0.000671  -0.001208  -0.000329
     32      -0.001117  -0.044809  -0.224562  -0.033860  -0.007530  -0.000517
     33      -0.009264  -0.002820  -0.016079  -0.004405   0.430959   0.000208
     34      -0.003386  -0.000873  -0.011375  -0.003230   0.281242   0.000338
     35       0.013522   0.000970   0.029813   0.008987  -0.851992  -0.001244
     36      -0.262270   0.004874   0.003113  -0.023643  -0.005064   0.000342
     37      -0.568759   0.010772   0.007649  -0.056375  -0.013574   0.000318
     38      -0.693641   0.012918   0.008590  -0.070139  -0.011678   0.000072
     39      -0.282186  -0.004650   0.006255  -0.038590   0.002598   0.000007
     40       0.120571   0.002140  -0.002145   0.015310  -0.001862   0.000517
     41      -0.113640  -0.002977   0.002409  -0.014311   0.001949  -0.000417
     42       0.069669   0.041167   0.069972  -0.609433  -0.003918   0.000249
     43       0.063776   0.037439   0.061511  -0.534540  -0.003690   0.000540
     44       0.014045   0.008216   0.012189  -0.108424  -0.000028  -0.000009
     45       0.016356  -0.042965   0.024278  -0.201382  -0.000745  -0.000044
     46      -0.004774   0.014261  -0.006451   0.057972  -0.000149   0.000264
     47       0.036058  -0.101521   0.058837  -0.503918   0.000563  -0.000306


-----------
IR SPECTRUM
-----------

 Mode   freq       eps      Int      T**2         TX        TY        TZ
       cm**-1   L/(mol*cm) km/mol    a.u.
----------------------------------------------------------------------------
  8:     87.41   0.000096    0.49  0.000343  (-0.013247 -0.012178 -0.004368)
  9:    121.42   0.000123    0.62  0.000315  ( 0.015099  0.008310  0.004227)
 10:    235.01   0.000043    0.22  0.000057  ( 0.002418  0.004346  0.005709)
 11:    296.76   0.004978   25.16  0.005235  (-0.070678  0.012296 -0.009384)
 12:    370.59   0.000314    1.59  0.000264  (-0.008113 -0.012072  0.007259)
 13:    455.87   0.002039   10.30  0.001396  ( 0.012245 -0.034648  0.006723)
 14:    531.85   0.001146    5.79  0.000672  (-0.019999 -0.006791 -0.015042)
 15:    717.49   0.000620    3.14  0.000270  ( 0.010531  0.011083  0.006012)
 16:    751.23   0.000166    0.84  0.000069  ( 0.005000  0.006618 -0.000211)
 17:    795.98   0.000204    1.03  0.000080  ( 0.004324  0.001230 -0.007730)
 18:    883.00   0.007751   39.17  0.002739  (-0.052163 -0.000229  0.004280)
 19:    886.76   0.003030   15.31  0.001066  (-0.028316  0.000489  0.016258)
 20:    910.99   0.000569    2.88  0.000195  (-0.013811 -0.001716 -0.001099)
 21:    919.47   0.007206   36.41  0.002446  ( 0.047488  0.013586 -0.002425)
 22:    949.42   0.001191    6.02  0.000392  (-0.010762  0.016078  0.004156)
 23:    966.78   0.000324    1.64  0.000105  ( 0.008223  0.000109  0.006074)
 24:   1015.62   0.001522    7.69  0.000468  ( 0.019388 -0.000486  0.009574)
 25:   1023.07   0.000594    3.00  0.000181  (-0.007685  0.008638  0.006889)
 26:   1060.02   0.001326    6.70  0.000390  ( 0.013045 -0.006418  0.013381)
 27:   1123.41   0.000873    4.41  0.000242  ( 0.015242  0.003175  0.000169)
 28:   1146.14   0.003011   15.22  0.000820  (-0.007946  0.001614 -0.027462)
 29:   1178.64   0.002801   14.16  0.000742  ( 0.000278 -0.010961  0.024928)
 30:   1224.01   0.001353    6.84  0.000345  (-0.003812 -0.007534  0.016540)
 31:   1245.04   0.000111    0.56  0.000028  (-0.002383  0.000331  0.004689)
 32:   1253.59   0.001600    8.08  0.000398  ( 0.008753 -0.017800  0.002175)
 33:   1276.96   0.002241   11.32  0.000548  (-0.016744  0.003363  0.015996)
 34:   1323.10   0.000879    4.44  0.000207  (-0.013685  0.003676 -0.002552)
 35:   1339.58   0.000083    0.42  0.000019  ( 0.000904 -0.002339  0.003614)
 36:   1413.87   0.000679    3.43  0.000150  (-0.007425  0.006966  0.006803)
 37:   1425.11   0.001601    8.09  0.000351  ( 0.004102  0.018245  0.000939)
 38:   1447.81   0.001178    5.95  0.000254  ( 0.002708 -0.013001  0.008800)
 39:   3135.40   0.003955   19.99  0.000394  (-0.014641  0.012536  0.004701)
 40:   3140.36   0.006112   30.89  0.000607  ( 0.017060  0.007094  0.016307)
 41:   3195.43   0.003585   18.12  0.000350  ( 0.001751 -0.009626  0.015950)
 42:   3224.65   0.001073    5.42  0.000104  ( 0.000012  0.005975  0.008254)
 43:   3236.03   0.004913   24.83  0.000474  (-0.010679  0.006501  0.017818)
 44:   3272.04   0.001309    6.62  0.000125  ( 0.000752 -0.010873  0.002469)
 45:   3276.58   0.001300    6.57  0.000124  ( 0.006490  0.003289  0.008421)
 46:   3405.94   0.001054    5.33  0.000097  ( 0.004781 -0.003700  0.007746)
 47:   3979.07   0.015667   79.18  0.001229  (-0.027301  0.004216 -0.021578)

* The epsilon (eps) is given for a Dirac delta lineshape.
** The dipole moment derivative (T) already includes vibrational overlap.

The first frequency considered to be a vibration is 8
The total number of vibrations considered is 40


--------------------------
THERMOCHEMISTRY AT 298.15K
--------------------------

Temperature         ... 298.15 K
Pressure            ... 1.00 atm
Total Mass          ... 101.12 AMU

Throughout the following assumptions are being made:
  (1) The electronic state is orbitally nondegenerate
      but the spin degeneracy is treated
  (2) There are no thermally accessible electronically excited states
  (3) Hindered rotations indicated by low frequency modes are not
      treated as such but are treated as vibrations and this may
      cause some error
  (4) All equations used are the standard statistical mechanics
      equations for an ideal gas
  (5) All vibrations are strictly harmonic

freq.      87.41  E(vib)   ...       0.48 
freq.     121.42  E(vib)   ...       0.44 
freq.     235.01  E(vib)   ...       0.32 
freq.     296.76  E(vib)   ...       0.27 
freq.     370.59  E(vib)   ...       0.21 
freq.     455.87  E(vib)   ...       0.16 
freq.     531.85  E(vib)   ...       0.13 
freq.     717.49  E(vib)   ...       0.07 
freq.     751.23  E(vib)   ...       0.06 
freq.     795.98  E(vib)   ...       0.05 
freq.     883.00  E(vib)   ...       0.04 
freq.     886.76  E(vib)   ...       0.04 
freq.     910.99  E(vib)   ...       0.03 
freq.     919.47  E(vib)   ...       0.03 
freq.     949.42  E(vib)   ...       0.03 
freq.     966.78  E(vib)   ...       0.03 
freq.    1015.62  E(vib)   ...       0.02 
freq.    1023.07  E(vib)   ...       0.02 
freq.    1060.02  E(vib)   ...       0.02 
freq.    1123.41  E(vib)   ...       0.01 
freq.    1146.14  E(vib)   ...       0.01 
freq.    1178.64  E(vib)   ...       0.01 
freq.    1224.01  E(vib)   ...       0.01 
freq.    1245.04  E(vib)   ...       0.01 
freq.    1253.59  E(vib)   ...       0.01 
freq.    1276.96  E(vib)   ...       0.01 
freq.    1323.10  E(vib)   ...       0.01 
freq.    1339.58  E(vib)   ...       0.01 
freq.    1413.87  E(vib)   ...       0.00 
freq.    1425.11  E(vib)   ...       0.00 
freq.    1447.81  E(vib)   ...       0.00 
freq.    3135.40  E(vib)   ...       0.00 
freq.    3140.36  E(vib)   ...       0.00 
freq.    3195.43  E(vib)   ...       0.00 
freq.    3224.65  E(vib)   ...       0.00 
freq.    3236.03  E(vib)   ...       0.00 
freq.    3272.04  E(vib)   ...       0.00 
freq.    3276.58  E(vib)   ...       0.00 
freq.    3405.94  E(vib)   ...       0.00 
freq.    3979.07  E(vib)   ...       0.00 

------------
INNER ENERGY
------------

The inner energy is: U= E(el) + E(ZPE) + E(vib) + E(rot) + E(trans)
    E(el)   - is the total energy from the electronic structure calculation
              = E(kin-el) + E(nuc-el) + E(el-el) + E(nuc-nuc)
    E(ZPE)  - the the zero temperature vibrational energy from the frequency calculation
    E(vib)  - the the finite temperature correction to E(ZPE) due to population
              of excited vibrational states
    E(rot)  - is the rotational thermal energy
    E(trans)- is the translational thermal energy

Summary of contributions to the inner energy U:
Electronic energy                ...   -345.55856323 Eh
Zero point energy                ...      0.13268381 Eh      83.26 kcal/mol
Thermal vibrational correction   ...      0.00402118 Eh       2.52 kcal/mol
Thermal rotational correction    ...      0.00141627 Eh       0.89 kcal/mol
Thermal translational correction ...      0.00141627 Eh       0.89 kcal/mol
-----------------------------------------------------------------------
Total thermal energy                   -345.41902570 Eh


Summary of corrections to the electronic energy:
(perhaps to be used in another calculation)
Total thermal correction                  0.00685372 Eh       4.30 kcal/mol
Non-thermal (ZPE) correction              0.13268381 Eh      83.26 kcal/mol
-----------------------------------------------------------------------
Total correction                          0.13953754 Eh      87.56 kcal/mol


--------
ENTHALPY
--------

The enthalpy is H = U + kB*T
                kB is Boltzmann's constant
Total free energy                 ...   -345.41902570 Eh 
Thermal Enthalpy correction       ...      0.00094421 Eh       0.59 kcal/mol
-----------------------------------------------------------------------
Total Enthalpy                    ...   -345.41808149 Eh


Note: Only C1 symmetry has been detected, increase convergence thresholds 
      if your molecule has a higher symmetry. Symmetry factor of 1.0 is   
      used for the rotational entropy correction. 
 

Note: Rotational entropy computed according to Herzberg 
Infrared and Raman Spectra, Chapter V,1, Van Nostrand Reinhold, 1945 
Point Group:  C1, Symmetry Number:   1  
Rotational constants in cm-1:     0.148016     0.073816     0.067503 

Vibrational entropy computed according to the QRRHO of S. Grimme
Chem.Eur.J. 2012 18 9955


-------
ENTROPY
-------

The entropy contributions are T*S = T*(S(el)+S(vib)+S(rot)+S(trans))
     S(el)   - electronic entropy
     S(vib)  - vibrational entropy
     S(rot)  - rotational entropy
     S(trans)- translational entropy
The entropies will be listed as multiplied by the temperature to get
units of energy

Electronic entropy                ...      0.00065446 Eh      0.41 kcal/mol
Vibrational entropy               ...      0.00669612 Eh      4.20 kcal/mol
Rotational entropy                ...      0.01291562 Eh      8.10 kcal/mol
Translational entropy             ...      0.01888709 Eh     11.85 kcal/mol
-----------------------------------------------------------------------
Final entropy term                ...      0.03915328 Eh     24.57 kcal/mol

In case the symmetry of your molecule has not been determined correctly
or in case you have a reason to use a different symmetry number we print 
out the resulting rotational entropy values for sn=1,12 :
 --------------------------------------------------------
|  sn= 1 | S(rot)=       0.01291562 Eh      8.10 kcal/mol|
|  sn= 2 | S(rot)=       0.01226117 Eh      7.69 kcal/mol|
|  sn= 3 | S(rot)=       0.01187833 Eh      7.45 kcal/mol|
|  sn= 4 | S(rot)=       0.01160671 Eh      7.28 kcal/mol|
|  sn= 5 | S(rot)=       0.01139602 Eh      7.15 kcal/mol|
|  sn= 6 | S(rot)=       0.01122388 Eh      7.04 kcal/mol|
|  sn= 7 | S(rot)=       0.01107833 Eh      6.95 kcal/mol|
|  sn= 8 | S(rot)=       0.01095225 Eh      6.87 kcal/mol|
|  sn= 9 | S(rot)=       0.01084104 Eh      6.80 kcal/mol|
|  sn=10 | S(rot)=       0.01074156 Eh      6.74 kcal/mol|
|  sn=11 | S(rot)=       0.01065157 Eh      6.68 kcal/mol|
|  sn=12 | S(rot)=       0.01056942 Eh      6.63 kcal/mol|
 --------------------------------------------------------


-------------------
GIBBS FREE ENERGY
-------------------

The Gibbs free energy is G = H - T*S

Total enthalpy                    ...   -345.41808149 Eh 
Total entropy correction          ...     -0.03915328 Eh    -24.57 kcal/mol
-----------------------------------------------------------------------
Final Gibbs free energy         ...   -345.45723477 Eh

For completeness - the Gibbs free energy minus the electronic energy
G-E(el)                           ...      0.10132846 Eh     63.58 kcal/mol


Timings for individual modules:

Sum of individual times         ...       65.783 sec (=   1.096 min)
GTO integral calculation        ...        0.497 sec (=   0.008 min)   0.8 %
SCF iterations                  ...        9.737 sec (=   0.162 min)  14.8 %
Analytical frequency calculation...       55.549 sec (=   0.926 min)  84.4 %
                             ****ORCA TERMINATED NORMALLY****
TOTAL RUN TIME: 0 days 0 hours 1 minutes 6 seconds 235 msec
