
                                 *****************
                                 * O   R   C   A *
                                 *****************

                                            #,                                       
                                            ###                                      
                                            ####                                     
                                            #####                                    
                                            ######                                   
                                           ########,                                 
                                     ,,################,,,,,                         
                               ,,#################################,,                 
                          ,,##########################################,,             
                       ,#########################################, ''#####,          
                    ,#############################################,,   '####,        
                  ,##################################################,,,,####,       
                ,###########''''           ''''###############################       
              ,#####''   ,,,,##########,,,,          '''####'''          '####       
            ,##' ,,,,###########################,,,                        '##       
           ' ,,###''''                  '''############,,,                           
         ,,##''                                '''############,,,,        ,,,,,,###''
      ,#''                                            '''#######################'''  
     '                                                          ''''####''''         
             ,#######,   #######,   ,#######,      ##                                
            ,#'     '#,  ##    ##  ,#'     '#,    #''#        ######   ,####,        
            ##       ##  ##   ,#'  ##            #'  '#       #        #'  '#        
            ##       ##  #######   ##           ,######,      #####,   #    #        
            '#,     ,#'  ##    ##  '#,     ,#' ,#      #,         ##   #,  ,#        
             '#######'   ##     ##  '#######'  #'      '#     #####' # '####'        



                  #######################################################
                  #                        -***-                        #
                  #          Department of theory and spectroscopy      #
                  #    Directorship and core code : Frank Neese         #
                  #        Max Planck Institute fuer Kohlenforschung    #
                  #                Kaiser Wilhelm Platz 1               #
                  #                 D-45470 Muelheim/Ruhr               #
                  #                      Germany                        #
                  #                                                     #
                  #                  All rights reserved                #
                  #                        -***-                        #
                  #######################################################


                         Program Version 5.0.4 -  RELEASE  -


 With contributions from (in alphabetic order):
   Daniel Aravena         : Magnetic Suceptibility
   Michael Atanasov       : Ab Initio Ligand Field Theory (pilot matlab implementation)
   Alexander A. Auer      : GIAO ZORA, VPT2 properties, NMR spectrum
   Ute Becker             : Parallelization
   Giovanni Bistoni       : ED, misc. LED, open-shell LED, HFLD
   Martin Brehm           : Molecular dynamics
   Dmytro Bykov           : SCF Hessian
   Vijay G. Chilkuri      : MRCI spin determinant printing, contributions to CSF-ICE
   Dipayan Datta          : RHF DLPNO-CCSD density
   Achintya Kumar Dutta   : EOM-CC, STEOM-CC
   Dmitry Ganyushin       : Spin-Orbit,Spin-Spin,Magnetic field MRCI
   Miquel Garcia          : C-PCM and meta-GGA Hessian, CC/C-PCM, Gaussian charge scheme
   Yang Guo               : DLPNO-NEVPT2, F12-NEVPT2, CIM, IAO-localization
   Andreas Hansen         : Spin unrestricted coupled pair/coupled cluster methods
   Benjamin Helmich-Paris : MC-RPA, TRAH-SCF, COSX integrals
   Lee Huntington         : MR-EOM, pCC
   Robert Izsak           : Overlap fitted RIJCOSX, COSX-SCS-MP3, EOM
   Marcus Kettner         : VPT2
   Christian Kollmar      : KDIIS, OOCD, Brueckner-CCSD(T), CCSD density, CASPT2, CASPT2-K
   Simone Kossmann        : Meta GGA functionals, TD-DFT gradient, OOMP2, MP2 Hessian
   Martin Krupicka        : Initial AUTO-CI
   Lucas Lang             : DCDCAS
   Marvin Lechner         : AUTO-CI (C++ implementation), FIC-MRCC
   Dagmar Lenk            : GEPOL surface, SMD
   Dimitrios Liakos       : Extrapolation schemes; Compound Job, initial MDCI parallelization
   Dimitrios Manganas     : Further ROCIS development; embedding schemes
   Dimitrios Pantazis     : SARC Basis sets
   Anastasios Papadopoulos: AUTO-CI, single reference methods and gradients
   Taras Petrenko         : DFT Hessian,TD-DFT gradient, ASA, ECA, R-Raman, ABS, FL, XAS/XES, NRVS
   Peter Pinski           : DLPNO-MP2, DLPNO-MP2 Gradient
   Christoph Reimann      : Effective Core Potentials
   Marius Retegan         : Local ZFS, SOC
   Christoph Riplinger    : Optimizer, TS searches, QM/MM, DLPNO-CCSD(T), (RO)-DLPNO pert. Triples
   Tobias Risthaus        : Range-separated hybrids, TD-DFT gradient, RPA, STAB
   Michael Roemelt        : Original ROCIS implementation
   Masaaki Saitow         : Open-shell DLPNO-CCSD energy and density
   Barbara Sandhoefer     : DKH picture change effects
   Avijit Sen             : IP-ROCIS
   Kantharuban Sivalingam : CASSCF convergence, NEVPT2, FIC-MRCI
   Bernardo de Souza      : ESD, SOC TD-DFT
   Georgi Stoychev        : AutoAux, RI-MP2 NMR, DLPNO-MP2 response
   Willem Van den Heuvel  : Paramagnetic NMR
   Boris Wezisla          : Elementary symmetry handling
   Frank Wennmohs         : Technical directorship


 We gratefully acknowledge several colleagues who have allowed us to
 interface, adapt or use parts of their codes:
   Stefan Grimme, W. Hujo, H. Kruse, P. Pracht,  : VdW corrections, initial TS optimization,
                  C. Bannwarth, S. Ehlert          DFT functionals, gCP, sTDA/sTD-DF
   Ed Valeev, F. Pavosevic, A. Kumar             : LibInt (2-el integral package), F12 methods
   Garnet Chan, S. Sharma, J. Yang, R. Olivares  : DMRG
   Ulf Ekstrom                                   : XCFun DFT Library
   Mihaly Kallay                                 : mrcc  (arbitrary order and MRCC methods)
   Jiri Pittner, Ondrej Demel                    : Mk-CCSD
   Frank Weinhold                                : gennbo (NPA and NBO analysis)
   Christopher J. Cramer and Donald G. Truhlar   : smd solvation model
   Lars Goerigk                                  : TD-DFT with DH, B97 family of functionals
   V. Asgeirsson, H. Jonsson                     : NEB implementation
   FAccTs GmbH                                   : IRC, NEB, NEB-TS, DLPNO-Multilevel, CI-OPT
                                                   MM, QMMM, 2- and 3-layer-ONIOM, Crystal-QMMM,
                                                   LR-CPCM, SF, NACMEs, symmetry and pop. for TD-DFT,
                                                   nearIR, NL-DFT gradient (VV10), updates on ESD,
                                                   ML-optimized integration grids
   S Lehtola, MJT Oliveira, MAL Marques          : LibXC Library
   Liviu Ungur et al                             : ANISO software


 Your calculation uses the libint2 library for the computation of 2-el integrals
 For citations please refer to: http://libint.valeyev.net

 Your ORCA version has been built with support for libXC version: 5.1.0
 For citations please refer to: https://tddft.org/programs/libxc/

 This ORCA versions uses:
   CBLAS   interface :  Fast vector & matrix operations
   LAPACKE interface :  Fast linear algebra routines
   SCALAPACK package :  Parallel linear algebra routines
   Shared memory     :  Shared parallel matrices
   BLAS/LAPACK       :  OpenBLAS 0.3.15  USE64BITINT DYNAMIC_ARCH NO_AFFINITY SkylakeX SINGLE_THREADED
        Core in use  :  SkylakeX
   Copyright (c) 2011-2014, The OpenBLAS Project


Your calculation utilizes the atom-pairwise dispersion correction
with the Becke-Johnson damping scheme (D3BJ)
Cite in your paper:
S.Grimme, S.Ehrlich, L.Goerigk, J Comput Chem, (2011), 32, 1456–1465 
S.Grimme, J.Antony, S.Ehrlich and H.Krieg, J.Chem.Phys., 132, (2010), 154104 
   

================================================================================

----- Orbital basis set information -----
Your calculation utilizes the basis: def2-SVP
   F. Weigend and R. Ahlrichs, Phys. Chem. Chem. Phys. 7, 3297 (2005).

----- AuxJ basis set information -----
Your calculation utilizes the auxiliary basis: def2/J
   F. Weigend, Phys. Chem. Chem. Phys. 8, 1057 (2006).

================================================================================
                                        WARNINGS
                       Please study these warnings very carefully!
================================================================================


WARNING: your system is open-shell and RHF/RKS was chosen
  ===> : WILL SWITCH to UHF/UKS


INFO   : the flag for use of the SHARK integral package has been found!

================================================================================
                                       INPUT FILE
================================================================================
NAME = 1_0_orca.inp
|  1> ! EnGrad PBE0 RIJCOSX D3BJ def2-SVP def2/J 
|  2> %output 
|  3> xyzfile=True 
|  4> end 
|  5> %scf 
|  6> maxiter 250 
|  7> end
|  8> %output
|  9> Print[P_Hirshfeld] = 1
| 10> end
| 11> % maxcore
| 12> 4000
| 13> *xyz 0 2
| 14> O   -2.56120259  -0.47957830   0.73950613 
| 15> O   -1.29127225   0.18920355   1.15705476 
| 16> C   -0.62158252   0.48782201  -0.04587857 
| 17> C    0.57631569   1.29712464   0.35523007 
| 18> C    1.73731029   0.58602309   0.08285777 
| 19> C    1.44564151  -0.62441164  -0.53169045 
| 20> C   -0.02893212  -0.75807038  -0.73321472 
| 21> H   -2.62859261  -1.11440053   1.46419016 
| 22> H   -1.31782289   1.04277785  -0.70174327 
| 23> H    0.50417039   2.27108126   0.83909351 
| 24> H    2.74496441   0.93697144   0.31493072 
| 25> H    2.17914289  -1.36605143  -0.85148604 
| 26> H   -0.28577441  -0.79827674  -1.80609786 
| 27> H   -0.45236936  -1.67011839  -0.28275434 
| 28> *
| 29> 
| 30>                          ****END OF INPUT****
================================================================================

                     *******************************
                     * Energy+Gradient Calculation *
                     *******************************

---------------------------------
CARTESIAN COORDINATES (ANGSTROEM)
---------------------------------
  O     -2.561203   -0.479578    0.739506
  O     -1.291272    0.189204    1.157055
  C     -0.621583    0.487822   -0.045879
  C      0.576316    1.297125    0.355230
  C      1.737310    0.586023    0.082858
  C      1.445642   -0.624412   -0.531690
  C     -0.028932   -0.758070   -0.733215
  H     -2.628593   -1.114401    1.464190
  H     -1.317823    1.042778   -0.701743
  H      0.504170    2.271081    0.839094
  H      2.744964    0.936971    0.314931
  H      2.179143   -1.366051   -0.851486
  H     -0.285774   -0.798277   -1.806098
  H     -0.452369   -1.670118   -0.282754

----------------------------
CARTESIAN COORDINATES (A.U.)
----------------------------
  NO LB      ZA    FRAG     MASS         X           Y           Z
   0 O     8.0000    0    15.999   -4.839971   -0.906272    1.397464
   1 O     8.0000    0    15.999   -2.440151    0.357543    2.186517
   2 C     6.0000    0    12.011   -1.174621    0.921850   -0.086698
   3 C     6.0000    0    12.011    1.089079    2.451210    0.671288
   4 C     6.0000    0    12.011    3.283041    1.107423    0.156578
   5 C     6.0000    0    12.011    2.731867   -1.179967   -1.004749
   6 C     6.0000    0    12.011   -0.054674   -1.432545   -1.385575
   7 H     1.0000    0     1.008   -4.967320   -2.105912    2.766918
   8 H     1.0000    0     1.008   -2.490324    1.970565   -1.326103
   9 H     1.0000    0     1.008    0.952744    4.291722    1.585657
  10 H     1.0000    0     1.008    5.187231    1.770619    0.595133
  11 H     1.0000    0     1.008    4.117983   -2.581463   -1.609075
  12 H     1.0000    0     1.008   -0.540035   -1.508524   -3.413030
  13 H     1.0000    0     1.008   -0.854854   -3.156066   -0.534328

--------------------------------
INTERNAL COORDINATES (ANGSTROEM)
--------------------------------
 O      0   0   0     0.000000000000     0.00000000     0.00000000
 O      1   0   0     1.494770580978     0.00000000     0.00000000
 C      2   1   0     1.408795909827   105.08053904     0.00000000
 C      3   2   1     1.500272978337   105.40315482   173.71377955
 C      4   3   2     1.388438167672   109.81177432   113.82703362
 C      5   4   3     1.388485659819   110.95641876     2.78352588
 C      6   5   4     1.494270417451   110.17949949     1.37912355
 H      1   2   3     0.965767892319    98.26609176   144.28429396
 H      3   2   1     1.105841372835   108.27080228    52.54354780
 H      4   3   2     1.089917552167   123.22193143   297.03989986
 H      5   4   3     1.091965852965   124.42515149   182.35426793
 H      6   5   4     1.091019281203   125.52837013   179.77102621
 H      7   6   5     1.103930589038   111.34139296   116.14529610
 H      7   6   5     1.101837203362   113.46192060   235.79361412

---------------------------
INTERNAL COORDINATES (A.U.)
---------------------------
 O      0   0   0     0.000000000000     0.00000000     0.00000000
 O      1   0   0     2.824707031090     0.00000000     0.00000000
 C      2   1   0     2.662238448161   105.08053904     0.00000000
 C      3   2   1     2.835105055180   105.40315482   173.71377955
 C      4   3   2     2.623767890784   109.81177432   113.82703362
 C      5   4   3     2.623857637934   110.95641876     2.78352588
 C      6   5   4     2.823761859002   110.17949949     1.37912355
 H      1   2   3     1.825036825418    98.26609176   144.28429396
 H      3   2   1     2.089737342218   108.27080228    52.54354780
 H      4   3   2     2.059645682150   123.22193143   297.03989986
 H      5   4   3     2.063516409698   124.42515149   182.35426793
 H      6   5   4     2.061727648301   125.52837013   179.77102621
 H      7   6   5     2.086126484140   111.34139296   116.14529610
 H      7   6   5     2.082170558521   113.46192060   235.79361412

---------------------
BASIS SET INFORMATION
---------------------
There are 3 groups of distinct atoms

 Group   1 Type O   : 7s4p1d contracted to 3s2p1d pattern {511/31/1}
 Group   2 Type C   : 7s4p1d contracted to 3s2p1d pattern {511/31/1}
 Group   3 Type H   : 4s1p contracted to 2s1p pattern {31/1}

Atom   0O    basis set group =>   1
Atom   1O    basis set group =>   1
Atom   2C    basis set group =>   2
Atom   3C    basis set group =>   2
Atom   4C    basis set group =>   2
Atom   5C    basis set group =>   2
Atom   6C    basis set group =>   2
Atom   7H    basis set group =>   3
Atom   8H    basis set group =>   3
Atom   9H    basis set group =>   3
Atom  10H    basis set group =>   3
Atom  11H    basis set group =>   3
Atom  12H    basis set group =>   3
Atom  13H    basis set group =>   3
---------------------------------
AUXILIARY/J BASIS SET INFORMATION
---------------------------------
There are 3 groups of distinct atoms

 Group   1 Type O   : 12s5p4d2f1g contracted to 6s4p3d1f1g pattern {711111/2111/211/2/1}
 Group   2 Type C   : 12s5p4d2f1g contracted to 6s4p3d1f1g pattern {711111/2111/211/2/1}
 Group   3 Type H   : 5s2p1d contracted to 3s1p1d pattern {311/2/1}

Atom   0O    basis set group =>   1
Atom   1O    basis set group =>   1
Atom   2C    basis set group =>   2
Atom   3C    basis set group =>   2
Atom   4C    basis set group =>   2
Atom   5C    basis set group =>   2
Atom   6C    basis set group =>   2
Atom   7H    basis set group =>   3
Atom   8H    basis set group =>   3
Atom   9H    basis set group =>   3
Atom  10H    basis set group =>   3
Atom  11H    basis set group =>   3
Atom  12H    basis set group =>   3
Atom  13H    basis set group =>   3
------------------------------------------------------------------------------
                           ORCA GTO INTEGRAL CALCULATION
                           -- RI-GTO INTEGRALS CHOSEN --
------------------------------------------------------------------------------
------------------------------------------------------------------------------
                   ___                                                        
                  /   \      - P O W E R E D   B Y -                         
                 /     \                                                     
                 |  |  |   _    _      __       _____    __    __             
                 |  |  |  | |  | |    /  \     |  _  \  |  |  /  |          
                  \  \/   | |  | |   /    \    | | | |  |  | /  /          
                 / \  \   | |__| |  /  /\  \   | |_| |  |  |/  /          
                |  |  |   |  __  | /  /__\  \  |    /   |      \           
                |  |  |   | |  | | |   __   |  |    \   |  |\   \          
                \     /   | |  | | |  |  |  |  | |\  \  |  | \   \       
                 \___/    |_|  |_| |__|  |__|  |_| \__\ |__|  \__/        
                                                                              
                      - O R C A' S   B I G   F R I E N D -                    
                                      &                                       
                       - I N T E G R A L  F E E D E R -                       
                                                                              
 v1 FN, 2020, v2 2021                                                         
------------------------------------------------------------------------------


Reading SHARK input file 1_0_orca.SHARKINP.tmp ... ok
----------------------
SHARK INTEGRAL PACKAGE
----------------------

Number of atoms                             ...     14
Number of basis functions                   ...    133
Number of shells                            ...     63
Maximum angular momentum                    ...      2
Integral batch strategy                     ... SHARK/LIBINT Hybrid
RI-J (if used) integral strategy            ... SPLIT-RIJ (Revised 2003 algorithm where possible)
Printlevel                                  ...      1
Contraction scheme used                     ... SEGMENTED contraction
Coulomb Range Separation                    ... NOT USED
Exchange Range Separation                   ... NOT USED
Finite Nucleus Model                        ... NOT USED
Auxiliary Coulomb fitting basis             ... AVAILABLE
   # of basis functions in Aux-J            ...    420
   # of shells in Aux-J                     ...    140
   Maximum angular momentum in Aux-J        ...      4
Auxiliary J/K fitting basis                 ... NOT available
Auxiliary Correlation fitting basis         ... NOT available
Auxiliary 'external' fitting basis          ... NOT available
Integral threshold                          ...     2.500000e-11
Primitive cut-off                           ...     2.500000e-12
Primitive pair pre-selection threshold      ...     2.500000e-12

Calculating pre-screening integrals         ... done (  0.0 sec) Dimension = 63
Organizing shell pair data                  ... done (  0.0 sec)
Shell pair information
Total number of shell pairs                 ...      2016
Shell pairs after pre-screening             ...      1940
Total number of primitive shell pairs       ...      7252
Primitive shell pairs kept                  ...      5310
          la=0 lb=0:    600 shell pairs
          la=1 lb=0:    710 shell pairs
          la=1 lb=1:    226 shell pairs
          la=2 lb=0:    235 shell pairs
          la=2 lb=1:    142 shell pairs
          la=2 lb=2:     27 shell pairs

Calculating one electron integrals          ... done (  0.0 sec)
Calculating RI/J V-Matrix + Cholesky decomp.... done (  0.1 sec)
Calculating Nuclear repulsion               ... done (  0.0 sec) ENN=    297.486938392496 Eh

SHARK setup successfully completed in   0.5 seconds

Maximum memory used throughout the entire GTOINT-calculation: 16.8 MB
-------------------------------------------------------------------------------
                                 ORCA SCF
-------------------------------------------------------------------------------

------------
SCF SETTINGS
------------
Hamiltonian:
 Density Functional     Method          .... DFT(GTOs)
 Exchange Functional    Exchange        .... PBE
   PBE kappa parameter   XKappa         ....  0.804000
   PBE mue parameter    XMuePBE         ....  0.219520
 Correlation Functional Correlation     .... PBE
   PBE beta parameter  CBetaPBE         ....  0.066725
 LDA part of GGA corr.  LDAOpt          .... PW91-LDA
 Gradients option       PostSCFGGA      .... off
 Hybrid DFT is turned on
   Fraction HF Exchange ScalHFX         ....  0.250000
   Scaling of DF-GGA-X  ScalDFX         ....  0.750000
   Scaling of DF-GGA-C  ScalDFC         ....  1.000000
   Scaling of DF-LDA-C  ScalLDAC        ....  1.000000
   Perturbative correction              ....  0.000000
   Density functional embedding theory  .... OFF
   NL short-range parameter             ....  6.900000
 RI-approximation to the Coulomb term is turned on
   Number of AuxJ basis functions       .... 420
   RIJ-COSX (HFX calculated with COS-X)).... on


General Settings:
 Integral files         IntName         .... 1_0_orca
 Hartree-Fock type      HFTyp           .... UHF
 Total Charge           Charge          ....    0
 Multiplicity           Mult            ....    2
 Number of Electrons    NEL             ....   53
 Basis Dimension        Dim             ....  133
 Nuclear Repulsion      ENuc            ....    297.4869383925 Eh

Convergence Acceleration:
 DIIS                   CNVDIIS         .... on
   Start iteration      DIISMaxIt       ....    12
   Startup error        DIISStart       ....  0.200000
   # of expansion vecs  DIISMaxEq       ....     5
   Bias factor          DIISBfac        ....   1.050
   Max. coefficient     DIISMaxC        ....  10.000
 Trust-Rad. Augm. Hess. CNVTRAH         .... auto
   Auto Start mean grad. ratio tolernc. ....  1.125000
   Auto Start start iteration           ....    20
   Auto Start num. interpolation iter.  ....    10
   Max. Number of Micro iterations      ....    16
   Max. Number of Macro iterations      .... Maxiter - #DIIS iter
   Number of Davidson start vectors     ....     2
   Converg. threshold I  (grad. norm)   ....   1.000e-05
   Converg. threshold II (energy diff.) ....   1.000e-08
   Grad. Scal. Fac. for Micro threshold ....   0.100
   Minimum threshold for Micro iter.    ....   0.010
   NR start threshold (gradient norm)   ....   0.001
   Initial trust radius                 ....   0.400
   Minimum AH scaling param. (alpha)    ....   1.000
   Maximum AH scaling param. (alpha)    .... 1000.000
   Orbital update algorithm             .... Taylor
   White noise on init. David. guess    .... on
   Maximum white noise                  ....   0.010
   Quad. conv. algorithm                .... NR
 SOSCF                  CNVSOSCF        .... off
 Level Shifting         CNVShift        .... on
   Level shift para.    LevelShift      ....    0.2500
   Turn off err/grad.   ShiftErr        ....    0.0010
 Zerner damping         CNVZerner       .... off
 Static damping         CNVDamp         .... on
   Fraction old density DampFac         ....    0.7000
   Max. Damping (<1)    DampMax         ....    0.9800
   Min. Damping (>=0)   DampMin         ....    0.0000
   Turn off err/grad.   DampErr         ....    0.1000
 Fernandez-Rico         CNVRico         .... off

SCF Procedure:
 Maximum # iterations   MaxIter         ....   250
 SCF integral mode      SCFMode         .... Direct
   Integral package                     .... SHARK and LIBINT hybrid scheme
 Reset frequency        DirectResetFreq ....    20
 Integral Threshold     Thresh          ....  2.500e-11 Eh
 Primitive CutOff       TCut            ....  2.500e-12 Eh

Convergence Tolerance:
 Convergence Check Mode ConvCheckMode   .... Total+1el-Energy
 Convergence forced     ConvForced      .... 0
 Energy Change          TolE            ....  1.000e-08 Eh
 1-El. energy change                    ....  1.000e-05 Eh
 DIIS Error             TolErr          ....  5.000e-07


Diagonalization of the overlap matrix:
Smallest eigenvalue                        ... 9.698e-04
Time for diagonalization                   ...    0.021 sec
Threshold for overlap eigenvalues          ... 1.000e-08
Number of eigenvalues below threshold      ... 0
Time for construction of square roots      ...    0.001 sec
Total time needed                          ...    0.022 sec

Time for model grid setup =    0.138 sec

------------------------------
INITIAL GUESS: MODEL POTENTIAL
------------------------------
Loading Hartree-Fock densities                     ... done
Calculating cut-offs                               ... done
Initializing the effective Hamiltonian             ... done
Setting up the integral package (SHARK)            ... done
Starting the Coulomb interaction                   ... done (   0.1 sec)
Reading the grid                                   ... done
Mapping shells                                     ... done
Starting the XC term evaluation                    ... done (   0.1 sec)
  promolecular density results
     # of electrons  =     52.998531324
     EX              =    -43.867942921
     EC              =     -1.756575111
     EX+EC           =    -45.624518032
Transforming the Hamiltonian                       ... done (   0.0 sec)
Diagonalizing the Hamiltonian                      ... done (   0.0 sec)
Back transforming the eigenvectors                 ... done (   0.0 sec)
Now organizing SCF variables                       ... done
                      ------------------
                      INITIAL GUESS DONE (   0.4 sec)
                      ------------------
-------------------
DFT GRID GENERATION
-------------------

General Integration Accuracy     IntAcc      ... 4.388
Radial Grid Type                 RadialGrid  ... OptM3 with GC (2021)
Angular Grid (max. ang.)         AngularGrid ... 4 (Lebedev-302)
Angular grid pruning method      GridPruning ... 4 (adaptive)
Weight generation scheme         WeightScheme... Becke
Basis function cutoff            BFCut       ... 1.0000e-11
Integration weight cutoff        WCut        ... 1.0000e-14
Angular grids for H and He will be reduced by one unit
Partially contracted basis set               ... off
Rotationally invariant grid construction     ... off

Total number of grid points                  ...    64872
Total number of batches                      ...     1021
Average number of points per batch           ...       63
Average number of grid points per atom       ...     4634
Time for grid setup =    0.484 sec

--------------------
COSX GRID GENERATION
--------------------

GRIDX 1
-------
General Integration Accuracy     IntAcc      ... 3.816
Radial Grid Type                 RadialGrid  ... OptM3 with GC (2021)
Angular Grid (max. ang.)         AngularGrid ... 1 (Lebedev-50)
Angular grid pruning method      GridPruning ... 4 (adaptive)
Weight generation scheme         WeightScheme... Becke
Basis function cutoff            BFCut       ... 1.0000e-11
Integration weight cutoff        WCut        ... 1.0000e-14
Angular grids for H and He will be reduced by one unit
Partially contracted basis set               ... on
Rotationally invariant grid construction     ... off

Total number of grid points                  ...     8288
Total number of batches                      ...      135
Average number of points per batch           ...       61
Average number of grid points per atom       ...      592
UseSFitting                                  ... on

GRIDX 2
-------
General Integration Accuracy     IntAcc      ... 4.020
Radial Grid Type                 RadialGrid  ... OptM3 with GC (2021)
Angular Grid (max. ang.)         AngularGrid ... 2 (Lebedev-110)
Angular grid pruning method      GridPruning ... 4 (adaptive)
Weight generation scheme         WeightScheme... Becke
Basis function cutoff            BFCut       ... 1.0000e-11
Integration weight cutoff        WCut        ... 1.0000e-14
Angular grids for H and He will be reduced by one unit
Partially contracted basis set               ... on
Rotationally invariant grid construction     ... off

Total number of grid points                  ...    18037
Total number of batches                      ...      288
Average number of points per batch           ...       62
Average number of grid points per atom       ...     1288
UseSFitting                                  ... on

GRIDX 3
-------
General Integration Accuracy     IntAcc      ... 4.338
Radial Grid Type                 RadialGrid  ... OptM3 with GC (2021)
Angular Grid (max. ang.)         AngularGrid ... 3 (Lebedev-194)
Angular grid pruning method      GridPruning ... 4 (adaptive)
Weight generation scheme         WeightScheme... Becke
Basis function cutoff            BFCut       ... 1.0000e-11
Integration weight cutoff        WCut        ... 1.0000e-14
Angular grids for H and He will be reduced by one unit
Partially contracted basis set               ... on
Rotationally invariant grid construction     ... off

Total number of grid points                  ...    39657
Total number of batches                      ...      627
Average number of points per batch           ...       63
Average number of grid points per atom       ...     2833
UseSFitting                                  ... on

Time for X-Grid setup             =    0.543 sec

--------------
SCF ITERATIONS
--------------
ITER       Energy         Delta-E        Max-DP      RMS-DP      [F,P]     Damp
               ***  Starting incremental Fock matrix formation  ***
  0   -344.2616939684   0.000000000000 0.03150055  0.00099976  0.0694009 0.7000
  1   -344.3144087697  -0.052714801318 0.02008081  0.00071373  0.0353206 0.7000
                               ***Turning on DIIS***
  2   -344.3386058226  -0.024197052865 0.03120289  0.00132371  0.0168323 0.0000
  3   -344.3759591607  -0.037353338109 0.01469127  0.00050673  0.0182485 0.0000
  4   -344.3842370951  -0.008277934355 0.00492606  0.00014179  0.0037968 0.0000
  5   -344.3846930476  -0.000455952502 0.00338518  0.00008629  0.0028207 0.0000
  6   -344.3848669502  -0.000173902627 0.00299748  0.00006447  0.0020160 0.0000
  7   -344.3849840199  -0.000117069756 0.00243367  0.00004840  0.0010881 0.0000
  8   -344.3850273909  -0.000043370974 0.00187911  0.00004018  0.0006110 0.0000
               *** Restarting incremental Fock matrix formation ***
                                   *** Resetting DIIS ***
  9   -344.3849806558   0.000046735070 0.00057056  0.00001491  0.0002172 0.0000
 10   -344.3849806371   0.000000018740 0.00027677  0.00000728  0.0002543 0.0000
 11   -344.3849818123  -0.000001175237 0.00009533  0.00000236  0.0000628 0.0000
 12   -344.3849818873  -0.000000075007 0.00008726  0.00000175  0.0000377 0.0000
 13   -344.3849819273  -0.000000039944 0.00003147  0.00000067  0.0000160 0.0000
                 **** Energy Check signals convergence ****

               *****************************************************
               *                     SUCCESS                       *
               *           SCF CONVERGED AFTER  14 CYCLES          *
               *****************************************************

Old exchange energy                            =    -11.176358524 Eh
New exchange energy                            =    -11.176300531 Eh
Exchange energy change after final integration =      0.000057993 Eh
Total energy after final integration           =   -344.384923939 Eh
Final COS-X integration done in                =     4.838 sec

----------------
TOTAL SCF ENERGY
----------------

Total Energy       :         -344.38492394 Eh           -9371.19020 eV

Components:
Nuclear Repulsion  :          297.48693839 Eh            8095.03114 eV
Electronic Energy  :         -641.87186233 Eh          -17466.22134 eV
One Electron Energy:        -1058.20037468 Eh          -28795.09611 eV
Two Electron Energy:          416.32851235 Eh           11328.87477 eV
Max COSX asymmetry :            0.00000062 Eh               0.00002 eV

Virial components:
Potential Energy   :         -685.86186653 Eh          -18663.25021 eV
Kinetic Energy     :          341.47694259 Eh            9292.06001 eV
Virial Ratio       :            2.00851589


DFT components:
N(Alpha)           :       27.000005033999 electrons
N(Beta)            :       26.000002725371 electrons
N(Total)           :       53.000007759370 electrons
E(X)               :      -33.461362353685 Eh       
E(C)               :       -1.768510574709 Eh       
E(XC)              :      -35.229872928394 Eh       
DFET-embed. en.    :        0.000000000000 Eh       

---------------
SCF CONVERGENCE
---------------

  Last Energy change         ...   -4.9728e-09  Tolerance :   1.0000e-08
  Last MAX-Density change    ...    0.0000e+00  Tolerance :   1.0000e-07
  Last RMS-Density change    ...    0.0000e+00  Tolerance :   5.0000e-09
  Last DIIS Error            ...    1.9806e-05  Tolerance :   5.0000e-07

             **** THE GBW FILE WAS UPDATED (1_0_orca.gbw) ****
             **** DENSITY 1_0_orca.scfp WAS UPDATED ****
             **** ENERGY FILE WAS UPDATED (1_0_orca.en.tmp) ****
----------------------
UHF SPIN CONTAMINATION
----------------------

Warning: in a DFT calculation there is little theoretical justification to 
         calculate <S**2> as in Hartree-Fock theory. We will do it anyways
         but you should keep in mind that the values have only limited relevance

Expectation value of <S**2>     :     0.786431
Ideal value S*(S+1) for S=0.5   :     0.750000
Deviation                       :     0.036431

             **** THE GBW FILE WAS UPDATED (1_0_orca.gbw) ****
             **** DENSITY 1_0_orca.scfp WAS UPDATED ****
----------------
ORBITAL ENERGIES
----------------
                 SPIN UP ORBITALS
  NO   OCC          E(Eh)            E(eV) 
   0   1.0000     -19.261159      -524.1228 
   1   1.0000     -19.255008      -523.9554 
   2   1.0000     -10.284982      -279.8686 
   3   1.0000     -10.246712      -278.8272 
   4   1.0000     -10.243971      -278.7526 
   5   1.0000     -10.239930      -278.6427 
   6   1.0000     -10.234674      -278.4996 
   7   1.0000      -1.118739       -30.4424 
   8   1.0000      -0.940828       -25.6012 
   9   1.0000      -0.863295       -23.4915 
  10   1.0000      -0.733124       -19.9493 
  11   1.0000      -0.708218       -19.2716 
  12   1.0000      -0.584083       -15.8937 
  13   1.0000      -0.562251       -15.2996 
  14   1.0000      -0.539935       -14.6924 
  15   1.0000      -0.525023       -14.2866 
  16   1.0000      -0.485726       -13.2173 
  17   1.0000      -0.447103       -12.1663 
  18   1.0000      -0.412678       -11.2295 
  19   1.0000      -0.403522       -10.9804 
  20   1.0000      -0.395028       -10.7493 
  21   1.0000      -0.387385       -10.5413 
  22   1.0000      -0.358539        -9.7563 
  23   1.0000      -0.341501        -9.2927 
  24   1.0000      -0.325087        -8.8461 
  25   1.0000      -0.262737        -7.1494 
  26   1.0000      -0.200953        -5.4682 
  27   0.0000       0.009096         0.2475 
  28   0.0000       0.049670         1.3516 
  29   0.0000       0.076696         2.0870 
  30   0.0000       0.092821         2.5258 
  31   0.0000       0.112735         3.0677 
  32   0.0000       0.122842         3.3427 
  33   0.0000       0.134951         3.6722 
  34   0.0000       0.145102         3.9484 
  35   0.0000       0.161427         4.3926 
  36   0.0000       0.197098         5.3633 
  37   0.0000       0.207758         5.6534 
  38   0.0000       0.249311         6.7841 
  39   0.0000       0.296657         8.0724 
  40   0.0000       0.350316         9.5326 
  41   0.0000       0.388143        10.5619 
  42   0.0000       0.412219        11.2171 
  43   0.0000       0.449848        12.2410 
  44   0.0000       0.469172        12.7668 
  45   0.0000       0.492925        13.4132 
  46   0.0000       0.504622        13.7315 
  47   0.0000       0.538938        14.6652 
  48   0.0000       0.548625        14.9288 
  49   0.0000       0.565267        15.3817 
  50   0.0000       0.589109        16.0305 
  51   0.0000       0.608774        16.5656 
  52   0.0000       0.623193        16.9579 
  53   0.0000       0.633357        17.2345 
  54   0.0000       0.656460        17.8632 
  55   0.0000       0.660903        17.9841 
  56   0.0000       0.670944        18.2573 
  57   0.0000       0.686001        18.6670 
  58   0.0000       0.703570        19.1451 
  59   0.0000       0.711255        19.3542 
  60   0.0000       0.731788        19.9130 
  61   0.0000       0.747457        20.3393 
  62   0.0000       0.778428        21.1821 
  63   0.0000       0.797624        21.7045 
  64   0.0000       0.809066        22.0158 
  65   0.0000       0.833925        22.6922 
  66   0.0000       0.920015        25.0349 
  67   0.0000       0.961913        26.1750 
  68   0.0000       1.017178        27.6788 
  69   0.0000       1.051121        28.6024 
  70   0.0000       1.070556        29.1313 
  71   0.0000       1.088516        29.6200 
  72   0.0000       1.164014        31.6744 
  73   0.0000       1.186914        32.2976 
  74   0.0000       1.214438        33.0465 
  75   0.0000       1.266458        34.4621 
  76   0.0000       1.276409        34.7328 
  77   0.0000       1.291949        35.1557 
  78   0.0000       1.372203        37.3395 
  79   0.0000       1.443418        39.2774 
  80   0.0000       1.469778        39.9947 
  81   0.0000       1.540111        41.9085 
  82   0.0000       1.553254        42.2662 
  83   0.0000       1.599901        43.5355 
  84   0.0000       1.617102        44.0036 
  85   0.0000       1.661131        45.2017 
  86   0.0000       1.671825        45.4927 
  87   0.0000       1.707146        46.4538 
  88   0.0000       1.722709        46.8773 
  89   0.0000       1.758732        47.8575 
  90   0.0000       1.780833        48.4589 
  91   0.0000       1.806525        49.1580 
  92   0.0000       1.835971        49.9593 
  93   0.0000       1.863711        50.7142 
  94   0.0000       1.877367        51.0858 
  95   0.0000       1.886055        51.3222 
  96   0.0000       1.928534        52.4781 
  97   0.0000       1.945809        52.9481 
  98   0.0000       1.974096        53.7179 
  99   0.0000       2.033982        55.3475 
 100   0.0000       2.052591        55.8538 
 101   0.0000       2.106146        57.3111 
 102   0.0000       2.120362        57.6980 
 103   0.0000       2.139645        58.2227 
 104   0.0000       2.195094        59.7315 
 105   0.0000       2.220976        60.4358 
 106   0.0000       2.260652        61.5155 
 107   0.0000       2.279656        62.0326 
 108   0.0000       2.336043        63.5670 
 109   0.0000       2.386740        64.9465 
 110   0.0000       2.422903        65.9305 
 111   0.0000       2.440218        66.4017 
 112   0.0000       2.484755        67.6136 
 113   0.0000       2.509227        68.2795 
 114   0.0000       2.537085        69.0376 
 115   0.0000       2.633965        71.6738 
 116   0.0000       2.664261        72.4982 
 117   0.0000       2.700847        73.4938 
 118   0.0000       2.713675        73.8428 
 119   0.0000       2.732200        74.3469 
 120   0.0000       2.820318        76.7447 
 121   0.0000       2.842500        77.3484 
 122   0.0000       2.941183        80.0337 
 123   0.0000       2.979877        81.0866 
 124   0.0000       3.010211        81.9120 
 125   0.0000       3.045176        82.8634 
 126   0.0000       3.071906        83.5908 
 127   0.0000       3.118745        84.8654 
 128   0.0000       3.199697        87.0682 
 129   0.0000       3.338082        90.8338 
 130   0.0000       3.412139        92.8490 
 131   0.0000       3.576328        97.3168 
 132   0.0000       3.851160       104.7954 

                 SPIN DOWN ORBITALS
  NO   OCC          E(Eh)            E(eV) 
   0   1.0000     -19.260281      -524.0989 
   1   1.0000     -19.254600      -523.9443 
   2   1.0000     -10.285641      -279.8865 
   3   1.0000     -10.244068      -278.7553 
   4   1.0000     -10.236468      -278.5485 
   5   1.0000     -10.235322      -278.5173 
   6   1.0000     -10.233930      -278.4794 
   7   1.0000      -1.117073       -30.3971 
   8   1.0000      -0.937796       -25.5187 
   9   1.0000      -0.854044       -23.2397 
  10   1.0000      -0.726657       -19.7733 
  11   1.0000      -0.694249       -18.8915 
  12   1.0000      -0.575664       -15.6646 
  13   1.0000      -0.557793       -15.1783 
  14   1.0000      -0.532247       -14.4832 
  15   1.0000      -0.522978       -14.2310 
  16   1.0000      -0.482116       -13.1190 
  17   1.0000      -0.443470       -12.0674 
  18   1.0000      -0.405277       -11.0282 
  19   1.0000      -0.397511       -10.8168 
  20   1.0000      -0.391861       -10.6631 
  21   1.0000      -0.382808       -10.4167 
  22   1.0000      -0.355253        -9.6669 
  23   1.0000      -0.337310        -9.1787 
  24   1.0000      -0.300702        -8.1825 
  25   1.0000      -0.261812        -7.1243 
  26   0.0000      -0.064833        -1.7642 
  27   0.0000       0.017156         0.4668 
  28   0.0000       0.066589         1.8120 
  29   0.0000       0.081598         2.2204 
  30   0.0000       0.094927         2.5831 
  31   0.0000       0.115817         3.1515 
  32   0.0000       0.126386         3.4391 
  33   0.0000       0.140667         3.8277 
  34   0.0000       0.148731         4.0472 
  35   0.0000       0.165436         4.5018 
  36   0.0000       0.201489         5.4828 
  37   0.0000       0.211537         5.7562 
  38   0.0000       0.254850         6.9348 
  39   0.0000       0.304014         8.2727 
  40   0.0000       0.357838         9.7373 
  41   0.0000       0.392261        10.6740 
  42   0.0000       0.415415        11.3040 
  43   0.0000       0.469223        12.7682 
  44   0.0000       0.476322        12.9614 
  45   0.0000       0.503159        13.6917 
  46   0.0000       0.512950        13.9581 
  47   0.0000       0.549116        14.9422 
  48   0.0000       0.557834        15.1794 
  49   0.0000       0.589898        16.0519 
  50   0.0000       0.599844        16.3226 
  51   0.0000       0.612910        16.6781 
  52   0.0000       0.632058        17.1992 
  53   0.0000       0.643288        17.5048 
  54   0.0000       0.664172        18.0730 
  55   0.0000       0.669779        18.2256 
  56   0.0000       0.676625        18.4119 
  57   0.0000       0.687943        18.7199 
  58   0.0000       0.704624        19.1738 
  59   0.0000       0.712900        19.3990 
  60   0.0000       0.736424        20.0391 
  61   0.0000       0.752334        20.4720 
  62   0.0000       0.783463        21.3191 
  63   0.0000       0.804295        21.8860 
  64   0.0000       0.816147        22.2085 
  65   0.0000       0.837559        22.7911 
  66   0.0000       0.922622        25.1058 
  67   0.0000       0.963409        26.2157 
  68   0.0000       1.019803        27.7502 
  69   0.0000       1.054266        28.6880 
  70   0.0000       1.074503        29.2387 
  71   0.0000       1.094053        29.7707 
  72   0.0000       1.166249        31.7352 
  73   0.0000       1.192430        32.4477 
  74   0.0000       1.218464        33.1561 
  75   0.0000       1.268456        34.5164 
  76   0.0000       1.289409        35.0866 
  77   0.0000       1.298240        35.3269 
  78   0.0000       1.373915        37.3861 
  79   0.0000       1.444635        39.3105 
  80   0.0000       1.472392        40.0658 
  81   0.0000       1.546510        42.0827 
  82   0.0000       1.562332        42.5132 
  83   0.0000       1.603224        43.6259 
  84   0.0000       1.622404        44.1478 
  85   0.0000       1.665841        45.3298 
  86   0.0000       1.674427        45.5635 
  87   0.0000       1.713137        46.6168 
  88   0.0000       1.724667        46.9306 
  89   0.0000       1.765140        48.0319 
  90   0.0000       1.787327        48.6356 
  91   0.0000       1.813798        49.3559 
  92   0.0000       1.844843        50.2007 
  93   0.0000       1.874168        50.9987 
  94   0.0000       1.883194        51.2443 
  95   0.0000       1.898764        51.6680 
  96   0.0000       1.937566        52.7239 
  97   0.0000       1.955636        53.2156 
  98   0.0000       1.978914        53.8490 
  99   0.0000       2.038246        55.4635 
 100   0.0000       2.060399        56.0663 
 101   0.0000       2.111437        57.4551 
 102   0.0000       2.126309        57.8598 
 103   0.0000       2.146294        58.4036 
 104   0.0000       2.206254        60.0352 
 105   0.0000       2.221478        60.4495 
 106   0.0000       2.269673        61.7610 
 107   0.0000       2.293857        62.4190 
 108   0.0000       2.351106        63.9768 
 109   0.0000       2.396678        65.2169 
 110   0.0000       2.426834        66.0375 
 111   0.0000       2.441118        66.4262 
 112   0.0000       2.492683        67.8293 
 113   0.0000       2.516136        68.4676 
 114   0.0000       2.548472        69.3475 
 115   0.0000       2.641336        71.8744 
 116   0.0000       2.667563        72.5881 
 117   0.0000       2.706051        73.6354 
 118   0.0000       2.715630        73.8960 
 119   0.0000       2.734318        74.4046 
 120   0.0000       2.824436        76.8568 
 121   0.0000       2.846469        77.4564 
 122   0.0000       2.943444        80.0952 
 123   0.0000       2.980453        81.1022 
 124   0.0000       3.012247        81.9674 
 125   0.0000       3.048393        82.9510 
 126   0.0000       3.073471        83.6334 
 127   0.0000       3.121302        84.9349 
 128   0.0000       3.201807        87.1256 
 129   0.0000       3.338950        90.8575 
 130   0.0000       3.415313        92.9354 
 131   0.0000       3.576840        97.3308 
 132   0.0000       3.852070       104.8201 

                    ********************************
                    * MULLIKEN POPULATION ANALYSIS *
                    ********************************

--------------------------------------------
MULLIKEN ATOMIC CHARGES AND SPIN POPULATIONS
--------------------------------------------
   0 O :   -0.176687    0.014806
   1 O :   -0.271462    0.010137
   2 C :    0.123152   -0.048251
   3 C :   -0.062426    0.699731
   4 C :   -0.000928   -0.322733
   5 C :   -0.111282    0.703968
   6 C :    0.053206   -0.063602
   7 H :    0.191603   -0.000446
   8 H :    0.044037    0.018618
   9 H :    0.041729   -0.033870
  10 H :    0.029689    0.011083
  11 H :    0.035425   -0.034901
  12 H :    0.057362    0.026111
  13 H :    0.046583    0.019348
Sum of atomic charges         :   -0.0000000
Sum of atomic spin populations:    1.0000000

-----------------------------------------------------
MULLIKEN REDUCED ORBITAL CHARGES AND SPIN POPULATIONS
-----------------------------------------------------
CHARGE
  0 O s       :     3.794967  s :     3.794967
      pz      :     1.553156  p :     4.365859
      px      :     1.311018
      py      :     1.501686
      dz2     :     0.002324  d :     0.015861
      dxz     :     0.003024
      dyz     :     0.004118
      dx2y2   :     0.003665
      dxy     :     0.002730
  1 O s       :     3.872172  s :     3.872172
      pz      :     1.477119  p :     4.379158
      px      :     1.172253
      py      :     1.729786
      dz2     :     0.005025  d :     0.020132
      dxz     :     0.005343
      dyz     :     0.002824
      dx2y2   :     0.003006
      dxy     :     0.003934
  2 C s       :     3.059470  s :     3.059470
      pz      :     0.814292  p :     2.746675
      px      :     0.939306
      py      :     0.993077
      dz2     :     0.013219  d :     0.070704
      dxz     :     0.020373
      dyz     :     0.016668
      dx2y2   :     0.008046
      dxy     :     0.012399
  3 C s       :     3.212095  s :     3.212095
      pz      :     0.986271  p :     2.818309
      px      :     0.936093
      py      :     0.895945
      dz2     :     0.002764  d :     0.032022
      dxz     :     0.005448
      dyz     :     0.004337
      dx2y2   :     0.009434
      dxy     :     0.010039
  4 C s       :     3.168152  s :     3.168152
      pz      :     0.973867  p :     2.794872
      px      :     0.871517
      py      :     0.949488
      dz2     :     0.004919  d :     0.037903
      dxz     :     0.005801
      dyz     :     0.005871
      dx2y2   :     0.010880
      dxy     :     0.010431
  5 C s       :     3.232959  s :     3.232959
      pz      :     0.967546  p :     2.844100
      px      :     0.951777
      py      :     0.924777
      dz2     :     0.004494  d :     0.034223
      dxz     :     0.005129
      dyz     :     0.004957
      dx2y2   :     0.009561
      dxy     :     0.010082
  6 C s       :     2.956916  s :     2.956916
      pz      :     1.001707  p :     2.956151
      px      :     0.938893
      py      :     1.015551
      dz2     :     0.007611  d :     0.033727
      dxz     :     0.005789
      dyz     :     0.004935
      dx2y2   :     0.008069
      dxy     :     0.007323
  7 H s       :     0.741426  s :     0.741426
      pz      :     0.028553  p :     0.066971
      px      :     0.012019
      py      :     0.026399
  8 H s       :     0.935302  s :     0.935302
      pz      :     0.006712  p :     0.020661
      px      :     0.007707
      py      :     0.006242
  9 H s       :     0.934280  s :     0.934280
      pz      :     0.007449  p :     0.023991
      px      :     0.003104
      py      :     0.013438
 10 H s       :     0.946957  s :     0.946957
      pz      :     0.004727  p :     0.023355
      px      :     0.013843
      py      :     0.004784
 11 H s       :     0.940855  s :     0.940855
      pz      :     0.005824  p :     0.023720
      px      :     0.008608
      py      :     0.009287
 12 H s       :     0.919406  s :     0.919406
      pz      :     0.014086  p :     0.023231
      px      :     0.004893
      py      :     0.004252
 13 H s       :     0.930170  s :     0.930170
      pz      :     0.006647  p :     0.023247
      px      :     0.005832
      py      :     0.010769

SPIN
  0 O s       :     0.000122  s :     0.000122
      pz      :     0.001265  p :     0.014676
      px      :     0.009903
      py      :     0.003508
      dz2     :     0.000012  d :     0.000008
      dxz     :     0.000001
      dyz     :    -0.000003
      dx2y2   :    -0.000012
      dxy     :     0.000010
  1 O s       :     0.001583  s :     0.001583
      pz      :     0.013735  p :     0.008364
      px      :    -0.003192
      py      :    -0.002179
      dz2     :     0.000070  d :     0.000190
      dxz     :     0.000024
      dyz     :     0.000016
      dx2y2   :     0.000018
      dxy     :     0.000062
  2 C s       :    -0.016188  s :    -0.016188
      pz      :    -0.009457  p :    -0.036218
      px      :    -0.013581
      py      :    -0.013181
      dz2     :    -0.000056  d :     0.004155
      dxz     :     0.003294
      dyz     :     0.000293
      dx2y2   :     0.000051
      dxy     :     0.000573
  3 C s       :     0.097596  s :     0.097596
      pz      :     0.456777  p :     0.604884
      px      :     0.025803
      py      :     0.122304
      dz2     :    -0.000944  d :    -0.002749
      dxz     :    -0.000462
      dyz     :    -0.001042
      dx2y2   :    -0.000082
      dxy     :    -0.000220
  4 C s       :    -0.056524  s :    -0.056524
      pz      :    -0.173674  p :    -0.274961
      px      :    -0.027435
      py      :    -0.073851
      dz2     :     0.003109  d :     0.008751
      dxz     :     0.001311
      dyz     :     0.002880
      dx2y2   :     0.001202
      dxy     :     0.000250
  5 C s       :     0.094443  s :     0.094443
      pz      :     0.456631  p :     0.612012
      px      :     0.024596
      py      :     0.130784
      dz2     :    -0.001192  d :    -0.002487
      dxz     :     0.000129
      dyz     :    -0.001187
      dx2y2   :    -0.000257
      dxy     :     0.000019
  6 C s       :    -0.020076  s :    -0.020076
      pz      :    -0.011722  p :    -0.047147
      px      :    -0.029040
      py      :    -0.006385
      dz2     :     0.000640  d :     0.003621
      dxz     :     0.002372
      dyz     :     0.000044
      dx2y2   :    -0.000053
      dxy     :     0.000619
  7 H s       :    -0.000653  s :    -0.000653
      pz      :     0.000047  p :     0.000206
      px      :     0.000142
      py      :     0.000018
  8 H s       :     0.018638  s :     0.018638
      pz      :     0.000048  p :    -0.000019
      px      :    -0.000194
      py      :     0.000127
  9 H s       :    -0.037459  s :    -0.037459
      pz      :     0.002805  p :     0.003589
      px      :    -0.000086
      py      :     0.000869
 10 H s       :     0.012180  s :     0.012180
      pz      :    -0.000809  p :    -0.001097
      px      :    -0.000076
      py      :    -0.000212
 11 H s       :    -0.038637  s :    -0.038637
      pz      :     0.002886  p :     0.003736
      px      :     0.000082
      py      :     0.000768
 12 H s       :     0.026270  s :     0.026270
      pz      :    -0.000106  p :    -0.000159
      px      :    -0.000081
      py      :     0.000028
 13 H s       :     0.019509  s :     0.019509
      pz      :    -0.000039  p :    -0.000161
      px      :    -0.000117
      py      :    -0.000005


                     *******************************
                     * LOEWDIN POPULATION ANALYSIS *
                     *******************************

-------------------------------------------
LOEWDIN ATOMIC CHARGES AND SPIN POPULATIONS
-------------------------------------------
   0 O :   -0.071650    0.012394
   1 O :   -0.092772    0.017995
   2 C :    0.040171   -0.000288
   3 C :   -0.028080    0.545980
   4 C :   -0.042085   -0.173211
   5 C :   -0.014262    0.555415
   6 C :   -0.055959   -0.009841
   7 H :    0.073326    0.000226
   8 H :    0.021349    0.016166
   9 H :    0.028982   -0.001555
  10 H :    0.034089    0.000399
  11 H :    0.025105   -0.001472
  12 H :    0.042190    0.022025
  13 H :    0.039596    0.015767

----------------------------------------------------
LOEWDIN REDUCED ORBITAL CHARGES AND SPIN POPULATIONS
----------------------------------------------------
CHARGE
  0 O s       :     3.572912  s :     3.572912
      pz      :     1.611175  p :     4.471459
      px      :     1.334205
      py      :     1.526079
      dz2     :     0.003396  d :     0.027278
      dxz     :     0.004128
      dyz     :     0.008612
      dx2y2   :     0.006274
      dxy     :     0.004869
  1 O s       :     3.597229  s :     3.597229
      pz      :     1.526657  p :     4.461827
      px      :     1.210615
      py      :     1.724556
      dz2     :     0.007824  d :     0.033716
      dxz     :     0.009230
      dyz     :     0.004467
      dx2y2   :     0.005666
      dxy     :     0.006528
  2 C s       :     2.856411  s :     2.856411
      pz      :     0.910965  p :     2.940735
      px      :     0.999077
      py      :     1.030693
      dz2     :     0.027985  d :     0.162684
      dxz     :     0.048618
      dyz     :     0.039362
      dx2y2   :     0.015577
      dxy     :     0.031141
  3 C s       :     2.895804  s :     2.895804
      pz      :     0.988713  p :     3.051745
      px      :     1.034826
      py      :     1.028206
      dz2     :     0.006001  d :     0.080532
      dxz     :     0.012737
      dyz     :     0.008932
      dx2y2   :     0.023996
      dxy     :     0.028867
  4 C s       :     2.870729  s :     2.870729
      pz      :     0.978493  p :     3.072937
      px      :     1.050025
      py      :     1.044419
      dz2     :     0.011320  d :     0.098418
      dxz     :     0.012859
      dyz     :     0.014952
      dx2y2   :     0.030281
      dxy     :     0.029008
  5 C s       :     2.892337  s :     2.892337
      pz      :     0.971865  p :     3.038358
      px      :     1.030374
      py      :     1.036119
      dz2     :     0.008782  d :     0.083567
      dxz     :     0.011000
      dyz     :     0.011695
      dx2y2   :     0.026998
      dxy     :     0.025092
  6 C s       :     2.846400  s :     2.846400
      pz      :     1.056544  p :     3.122603
      px      :     1.027512
      py      :     1.038546
      dz2     :     0.020299  d :     0.086957
      dxz     :     0.013536
      dyz     :     0.012739
      dx2y2   :     0.022634
      dxy     :     0.017748
  7 H s       :     0.746730  s :     0.746730
      pz      :     0.078140  p :     0.179944
      px      :     0.033779
      py      :     0.068025
  8 H s       :     0.912075  s :     0.912075
      pz      :     0.021896  p :     0.066576
      px      :     0.023957
      py      :     0.020723
  9 H s       :     0.897210  s :     0.897210
      pz      :     0.023227  p :     0.073807
      px      :     0.011555
      py      :     0.039025
 10 H s       :     0.898191  s :     0.898191
      pz      :     0.014253  p :     0.067720
      px      :     0.038601
      py      :     0.014867
 11 H s       :     0.902001  s :     0.902001
      pz      :     0.018836  p :     0.072894
      px      :     0.026985
      py      :     0.027073
 12 H s       :     0.890282  s :     0.890282
      pz      :     0.039632  p :     0.067528
      px      :     0.014506
      py      :     0.013390
 13 H s       :     0.892100  s :     0.892100
      pz      :     0.018024  p :     0.068304
      px      :     0.017420
      py      :     0.032861

SPIN
  0 O s       :    -0.000046  s :    -0.000046
      pz      :     0.001108  p :     0.012405
      px      :     0.008283
      py      :     0.003014
      dz2     :     0.000031  d :     0.000035
      dxz     :    -0.000014
      dyz     :    -0.000011
      dx2y2   :    -0.000009
      dxy     :     0.000040
  1 O s       :     0.008269  s :     0.008269
      pz      :     0.012817  p :     0.009468
      px      :    -0.001688
      py      :    -0.001660
      dz2     :     0.000008  d :     0.000258
      dxz     :    -0.000005
      dyz     :     0.000005
      dx2y2   :     0.000064
      dxy     :     0.000186
  2 C s       :    -0.002076  s :    -0.002076
      pz      :    -0.000942  p :    -0.009053
      px      :    -0.003136
      py      :    -0.004974
      dz2     :     0.000049  d :     0.010841
      dxz     :     0.008154
      dyz     :     0.000646
      dx2y2   :     0.000225
      dxy     :     0.001767
  3 C s       :     0.020690  s :     0.020690
      pz      :     0.412886  p :     0.530705
      px      :     0.013418
      py      :     0.104401
      dz2     :    -0.001087  d :    -0.005416
      dxz     :    -0.001382
      dyz     :    -0.001275
      dx2y2   :    -0.000661
      dxy     :    -0.001011
  4 C s       :    -0.010583  s :    -0.010583
      pz      :    -0.133524  p :    -0.184194
      px      :    -0.008022
      py      :    -0.042648
      dz2     :     0.007012  d :     0.021566
      dxz     :     0.003410
      dyz     :     0.006645
      dx2y2   :     0.003225
      dxy     :     0.001274
  5 C s       :     0.020913  s :     0.020913
      pz      :     0.415734  p :     0.539674
      px      :     0.013344
      py      :     0.110597
      dz2     :    -0.001862  d :    -0.005173
      dxz     :     0.000035
      dyz     :    -0.001820
      dx2y2   :    -0.001029
      dxy     :    -0.000497
  6 C s       :    -0.003256  s :    -0.003256
      pz      :    -0.002663  p :    -0.016100
      px      :    -0.011722
      py      :    -0.001714
      dz2     :     0.001968  d :     0.009514
      dxz     :     0.005462
      dyz     :     0.000169
      dx2y2   :     0.000347
      dxy     :     0.001568
  7 H s       :    -0.000427  s :    -0.000427
      pz      :     0.000141  p :     0.000653
      px      :     0.000416
      py      :     0.000096
  8 H s       :     0.016521  s :     0.016521
      pz      :    -0.000096  p :    -0.000355
      px      :    -0.000231
      py      :    -0.000028
  9 H s       :    -0.016963  s :    -0.016963
      pz      :     0.010786  p :     0.015408
      px      :     0.000278
      py      :     0.004344
 10 H s       :     0.005370  s :     0.005370
      pz      :    -0.003192  p :    -0.004971
      px      :    -0.000708
      py      :    -0.001071
 11 H s       :    -0.017307  s :    -0.017307
      pz      :     0.010896  p :     0.015835
      px      :     0.001199
      py      :     0.003740
 12 H s       :     0.022704  s :     0.022704
      pz      :    -0.000455  p :    -0.000679
      px      :    -0.000199
      py      :    -0.000025
 13 H s       :     0.016439  s :     0.016439
      pz      :    -0.000134  p :    -0.000671
      px      :    -0.000278
      py      :    -0.000259


                      *****************************
                      * MAYER POPULATION ANALYSIS *
                      *****************************

  NA   - Mulliken gross atomic population
  ZA   - Total nuclear charge
  QA   - Mulliken gross atomic charge
  VA   - Mayer's total valence
  BVA  - Mayer's bonded valence
  FA   - Mayer's free valence

  ATOM       NA         ZA         QA         VA         BVA        FA
  0 O      8.1767     8.0000    -0.1767     1.9901     1.9899     0.0002
  1 O      8.2715     8.0000    -0.2715     1.9233     1.9229     0.0004
  2 C      5.8768     6.0000     0.1232     3.9658     3.9639     0.0019
  3 C      6.0624     6.0000    -0.0624     3.8711     3.5488     0.3224
  4 C      6.0009     6.0000    -0.0009     3.8703     3.8241     0.0462
  5 C      6.1113     6.0000    -0.1113     3.9126     3.5838     0.3288
  6 C      5.9468     6.0000     0.0532     3.8639     3.8620     0.0019
  7 H      0.8084     1.0000     0.1916     1.0018     1.0018     0.0000
  8 H      0.9560     1.0000     0.0440     0.9833     0.9829     0.0004
  9 H      0.9583     1.0000     0.0417     0.9937     0.9923     0.0014
 10 H      0.9703     1.0000     0.0297     0.9854     0.9852     0.0002
 11 H      0.9646     1.0000     0.0354     0.9895     0.9880     0.0015
 12 H      0.9426     1.0000     0.0574     0.9763     0.9756     0.0007
 13 H      0.9534     1.0000     0.0466     1.0074     1.0070     0.0004

  Mayer bond orders larger than 0.100000
B(  0-O ,  1-O ) :   0.9301 B(  0-O ,  7-H ) :   0.9728 B(  1-O ,  2-C ) :   0.9269 
B(  2-C ,  3-C ) :   1.0221 B(  2-C ,  6-C ) :   1.0325 B(  2-C ,  8-H ) :   0.9239 
B(  3-C ,  4-C ) :   1.3925 B(  3-C ,  5-C ) :   0.1265 B(  3-C ,  9-H ) :   0.9884 
B(  4-C ,  5-C ) :   1.4144 B(  4-C , 10-H ) :   0.9955 B(  5-C ,  6-C ) :   1.0297 
B(  5-C , 11-H ) :   0.9863 B(  6-C , 12-H ) :   0.9249 B(  6-C , 13-H ) :   0.9195 



------------------
HIRSHFELD ANALYSIS
------------------

Total integrated alpha density =     27.000005034
Total integrated beta density  =     26.000002726

  ATOM     CHARGE      SPIN    
   0 O   -0.170422    0.012892
   1 O   -0.120074    0.022041
   2 C    0.058595    0.028020
   3 C   -0.031370    0.429166
   4 C   -0.046126   -0.060596
   5 C   -0.022356    0.437279
   6 C   -0.050566    0.026874
   7 H    0.170609    0.000664
   8 H    0.028726    0.016976
   9 H    0.039760    0.027209
  10 H    0.042884   -0.005919
  11 H    0.035772    0.027904
  12 H    0.033670    0.021678
  13 H    0.030890    0.015814

  TOTAL  -0.000008    1.000002

-------
TIMINGS
-------

Total SCF time: 0 days 0 hours 0 min 40 sec 

Total time                  ....      40.981 sec
Sum of individual times     ....      40.814 sec  ( 99.6%)

Fock matrix formation       ....      38.966 sec  ( 95.1%)
  Split-RI-J                ....       2.605 sec  (  6.7% of F)
  Chain of spheres X        ....      26.529 sec  ( 68.1% of F)
  XC integration            ....       9.851 sec  ( 25.3% of F)
    Basis function eval.    ....       2.712 sec  ( 27.5% of XC)
    Density eval.           ....       2.601 sec  ( 26.4% of XC)
    XC-Functional eval.     ....       0.947 sec  (  9.6% of XC)
    XC-Potential eval.      ....       3.350 sec  ( 34.0% of XC)
Diagonalization             ....       0.062 sec  (  0.2%)
Density matrix formation    ....       0.005 sec  (  0.0%)
Population analysis         ....       0.343 sec  (  0.8%)
Initial guess               ....       0.258 sec  (  0.6%)
Orbital Transformation      ....       0.000 sec  (  0.0%)
Orbital Orthonormalization  ....       0.000 sec  (  0.0%)
DIIS solution               ....       0.015 sec  (  0.0%)
Grid generation             ....       1.165 sec  (  2.8%)

Maximum memory used throughout the entire SCF-calculation: 63.4 MB


-------------------------------------------------------------------------------
                          DFT DISPERSION CORRECTION                            
                                                                               
                              DFTD3 V3.1  Rev 1                                
                          USING Becke-Johnson damping                          
-------------------------------------------------------------------------------
The PBE0 functional is recognized
Active option DFTDOPT                   ...         4   

molecular C6(AA) [au] = 1775.012896 


            DFT-D V3
 parameters
 s6 scaling factor         :     1.0000 
 a1 scaling factor         :     0.4145 
 s8 scaling factor         :     1.2177 
 a2 scaling factor         :     4.8593 
 ad hoc parameters k1-k3   :    16.0000     1.3333    -4.0000 

 Edisp/kcal,au: -6.237663566091  -0.009940348566 
 E6   /kcal   :  -3.961824774 
 E8   /kcal   :  -2.275838792 
 % E8         :  36.485436696 

-------------------------   ----------------
Dispersion correction           -0.009940349
-------------------------   ----------------


-------------------------   --------------------
FINAL SINGLE POINT ENERGY      -344.394864287489
-------------------------   --------------------

------------------------------------------------------------------------------
                         ORCA SCF GRADIENT CALCULATION
------------------------------------------------------------------------------

 ... reading COSX grid (gridx3)
Gradient of the Kohn-Sham DFT energy:
Kohn-Sham wavefunction type      ... UKS
Hartree-Fock exchange scaling    ...    0.250
Number of operators              ...    2
Number of atoms                  ...   14
Basis set dimensions             ...  133
Integral neglect threshold       ... 2.5e-11
Integral primitive cutoff        ... 2.5e-12
SHARK Integral package           ... ON

Nuc. rep. gradient       (SHARK) ... done (  0.0 sec)
HCore & Overlap gradient (SHARK) ... done (  0.1 sec)
RI-J gradient            (SHARK) ... done (  0.7 sec)
COSX-gradient                    ... done (  6.6 sec)
Exchange-correlation gradient    ... done
Dispersion correction            ... done

------------------
CARTESIAN GRADIENT
------------------

   1   O   :   -0.023314117   -0.013218687   -0.006962035
   2   O   :    0.026205651    0.013402136    0.007069500
   3   C   :   -0.000208918   -0.000725533   -0.000321493
   4   C   :   -0.000390982   -0.000651333    0.000514824
   5   C   :   -0.000829147   -0.000510716   -0.000237519
   6   C   :   -0.001734674    0.000601620    0.000557496
   7   C   :    0.000378467    0.000834025    0.000439436
   8   H   :   -0.000251116    0.000565104   -0.001274066
   9   H   :   -0.000013843   -0.000172659    0.000092050
  10   H   :    0.000028614   -0.000074535   -0.000041905
  11   H   :   -0.000203395   -0.000004347   -0.000016865
  12   H   :   -0.000255568    0.000062537    0.000043209
  13   H   :    0.000245157   -0.000024753    0.000330900
  14   H   :    0.000432321   -0.000027796    0.000041669

Difference to translation invariance:
           :    0.0000884496    0.0000550666    0.0002352016

Difference to rotation invariance:
           :   -0.0001225970    0.0001155724    0.0000392033

Norm of the cartesian gradient     ...    0.0411441560
RMS gradient                       ...    0.0063486811
MAX gradient                       ...    0.0262056506

-------
TIMINGS
-------

Total SCF gradient time            ...       11.226 sec

One electron gradient       ....       0.095 sec  (  0.9%)
RI-J Coulomb gradient       ....       0.702 sec  (  6.2%)
COSX gradient               ....       6.603 sec  ( 58.8%)
XC gradient                 ....       3.528 sec  ( 31.4%)

Maximum memory used throughout the entire SCFGRAD-calculation: 50.2 MB

                            ***************************************
                            *     ORCA property calculations      *
                            ***************************************

                                    ---------------------
                                    Active property flags
                                    ---------------------
   (+) Dipole Moment


------------------------------------------------------------------------------
                       ORCA ELECTRIC PROPERTIES CALCULATION
------------------------------------------------------------------------------

Dipole Moment Calculation                       ... on
Quadrupole Moment Calculation                   ... off
Polarizability Calculation                      ... off
GBWName                                         ... 1_0_orca.gbw
Electron density                                ... 1_0_orca.scfp
The origin for moment calculation is the CENTER OF MASS  = (-0.448971,  0.124383  0.359017)

-------------
DIPOLE MOMENT
-------------
                                X             Y             Z
Electronic contribution:     -1.88512       0.70960       2.09240
Nuclear contribution   :      2.20807      -1.09336      -2.18580
                        -----------------------------------------
Total Dipole Moment    :      0.32295      -0.38376      -0.09340
                        -----------------------------------------
Magnitude (a.u.)       :      0.51019
Magnitude (Debye)      :      1.29681



--------------------
Rotational spectrum 
--------------------
 
Rotational constants in cm-1:     0.205219     0.066841     0.055273 
Rotational constants in MHz :  6152.308449  2003.857641  1657.042742 

 Dipole components along the rotational axes: 
x,y,z [a.u.] :    -0.287252    -0.362790     0.214864 
x,y,z [Debye]:    -0.730136    -0.922138     0.546142 

 

Timings for individual modules:

Sum of individual times         ...       53.314 sec (=   0.889 min)
GTO integral calculation        ...        0.728 sec (=   0.012 min)   1.4 %
SCF iterations                  ...       41.082 sec (=   0.685 min)  77.1 %
SCF Gradient evaluation         ...       11.504 sec (=   0.192 min)  21.6 %
                             ****ORCA TERMINATED NORMALLY****
TOTAL RUN TIME: 0 days 0 hours 0 minutes 53 seconds 632 msec
