
                                 *****************
                                 * O   R   C   A *
                                 *****************

                                            #,                                       
                                            ###                                      
                                            ####                                     
                                            #####                                    
                                            ######                                   
                                           ########,                                 
                                     ,,################,,,,,                         
                               ,,#################################,,                 
                          ,,##########################################,,             
                       ,#########################################, ''#####,          
                    ,#############################################,,   '####,        
                  ,##################################################,,,,####,       
                ,###########''''           ''''###############################       
              ,#####''   ,,,,##########,,,,          '''####'''          '####       
            ,##' ,,,,###########################,,,                        '##       
           ' ,,###''''                  '''############,,,                           
         ,,##''                                '''############,,,,        ,,,,,,###''
      ,#''                                            '''#######################'''  
     '                                                          ''''####''''         
             ,#######,   #######,   ,#######,      ##                                
            ,#'     '#,  ##    ##  ,#'     '#,    #''#        ######   ,####,        
            ##       ##  ##   ,#'  ##            #'  '#       #        #'  '#        
            ##       ##  #######   ##           ,######,      #####,   #    #        
            '#,     ,#'  ##    ##  '#,     ,#' ,#      #,         ##   #,  ,#        
             '#######'   ##     ##  '#######'  #'      '#     #####' # '####'        



                  #######################################################
                  #                        -***-                        #
                  #          Department of theory and spectroscopy      #
                  #    Directorship and core code : Frank Neese         #
                  #        Max Planck Institute fuer Kohlenforschung    #
                  #                Kaiser Wilhelm Platz 1               #
                  #                 D-45470 Muelheim/Ruhr               #
                  #                      Germany                        #
                  #                                                     #
                  #                  All rights reserved                #
                  #                        -***-                        #
                  #######################################################


                         Program Version 5.0.4 -  RELEASE  -


 With contributions from (in alphabetic order):
   Daniel Aravena         : Magnetic Suceptibility
   Michael Atanasov       : Ab Initio Ligand Field Theory (pilot matlab implementation)
   Alexander A. Auer      : GIAO ZORA, VPT2 properties, NMR spectrum
   Ute Becker             : Parallelization
   Giovanni Bistoni       : ED, misc. LED, open-shell LED, HFLD
   Martin Brehm           : Molecular dynamics
   Dmytro Bykov           : SCF Hessian
   Vijay G. Chilkuri      : MRCI spin determinant printing, contributions to CSF-ICE
   Dipayan Datta          : RHF DLPNO-CCSD density
   Achintya Kumar Dutta   : EOM-CC, STEOM-CC
   Dmitry Ganyushin       : Spin-Orbit,Spin-Spin,Magnetic field MRCI
   Miquel Garcia          : C-PCM and meta-GGA Hessian, CC/C-PCM, Gaussian charge scheme
   Yang Guo               : DLPNO-NEVPT2, F12-NEVPT2, CIM, IAO-localization
   Andreas Hansen         : Spin unrestricted coupled pair/coupled cluster methods
   Benjamin Helmich-Paris : MC-RPA, TRAH-SCF, COSX integrals
   Lee Huntington         : MR-EOM, pCC
   Robert Izsak           : Overlap fitted RIJCOSX, COSX-SCS-MP3, EOM
   Marcus Kettner         : VPT2
   Christian Kollmar      : KDIIS, OOCD, Brueckner-CCSD(T), CCSD density, CASPT2, CASPT2-K
   Simone Kossmann        : Meta GGA functionals, TD-DFT gradient, OOMP2, MP2 Hessian
   Martin Krupicka        : Initial AUTO-CI
   Lucas Lang             : DCDCAS
   Marvin Lechner         : AUTO-CI (C++ implementation), FIC-MRCC
   Dagmar Lenk            : GEPOL surface, SMD
   Dimitrios Liakos       : Extrapolation schemes; Compound Job, initial MDCI parallelization
   Dimitrios Manganas     : Further ROCIS development; embedding schemes
   Dimitrios Pantazis     : SARC Basis sets
   Anastasios Papadopoulos: AUTO-CI, single reference methods and gradients
   Taras Petrenko         : DFT Hessian,TD-DFT gradient, ASA, ECA, R-Raman, ABS, FL, XAS/XES, NRVS
   Peter Pinski           : DLPNO-MP2, DLPNO-MP2 Gradient
   Christoph Reimann      : Effective Core Potentials
   Marius Retegan         : Local ZFS, SOC
   Christoph Riplinger    : Optimizer, TS searches, QM/MM, DLPNO-CCSD(T), (RO)-DLPNO pert. Triples
   Tobias Risthaus        : Range-separated hybrids, TD-DFT gradient, RPA, STAB
   Michael Roemelt        : Original ROCIS implementation
   Masaaki Saitow         : Open-shell DLPNO-CCSD energy and density
   Barbara Sandhoefer     : DKH picture change effects
   Avijit Sen             : IP-ROCIS
   Kantharuban Sivalingam : CASSCF convergence, NEVPT2, FIC-MRCI
   Bernardo de Souza      : ESD, SOC TD-DFT
   Georgi Stoychev        : AutoAux, RI-MP2 NMR, DLPNO-MP2 response
   Willem Van den Heuvel  : Paramagnetic NMR
   Boris Wezisla          : Elementary symmetry handling
   Frank Wennmohs         : Technical directorship


 We gratefully acknowledge several colleagues who have allowed us to
 interface, adapt or use parts of their codes:
   Stefan Grimme, W. Hujo, H. Kruse, P. Pracht,  : VdW corrections, initial TS optimization,
                  C. Bannwarth, S. Ehlert          DFT functionals, gCP, sTDA/sTD-DF
   Ed Valeev, F. Pavosevic, A. Kumar             : LibInt (2-el integral package), F12 methods
   Garnet Chan, S. Sharma, J. Yang, R. Olivares  : DMRG
   Ulf Ekstrom                                   : XCFun DFT Library
   Mihaly Kallay                                 : mrcc  (arbitrary order and MRCC methods)
   Jiri Pittner, Ondrej Demel                    : Mk-CCSD
   Frank Weinhold                                : gennbo (NPA and NBO analysis)
   Christopher J. Cramer and Donald G. Truhlar   : smd solvation model
   Lars Goerigk                                  : TD-DFT with DH, B97 family of functionals
   V. Asgeirsson, H. Jonsson                     : NEB implementation
   FAccTs GmbH                                   : IRC, NEB, NEB-TS, DLPNO-Multilevel, CI-OPT
                                                   MM, QMMM, 2- and 3-layer-ONIOM, Crystal-QMMM,
                                                   LR-CPCM, SF, NACMEs, symmetry and pop. for TD-DFT,
                                                   nearIR, NL-DFT gradient (VV10), updates on ESD,
                                                   ML-optimized integration grids
   S Lehtola, MJT Oliveira, MAL Marques          : LibXC Library
   Liviu Ungur et al                             : ANISO software


 Your calculation uses the libint2 library for the computation of 2-el integrals
 For citations please refer to: http://libint.valeyev.net

 Your ORCA version has been built with support for libXC version: 5.1.0
 For citations please refer to: https://tddft.org/programs/libxc/

 This ORCA versions uses:
   CBLAS   interface :  Fast vector & matrix operations
   LAPACKE interface :  Fast linear algebra routines
   SCALAPACK package :  Parallel linear algebra routines
   Shared memory     :  Shared parallel matrices
   BLAS/LAPACK       :  OpenBLAS 0.3.15  USE64BITINT DYNAMIC_ARCH NO_AFFINITY SkylakeX SINGLE_THREADED
        Core in use  :  SkylakeX
   Copyright (c) 2011-2014, The OpenBLAS Project


Your calculation utilizes the atom-pairwise dispersion correction
with the Becke-Johnson damping scheme (D3BJ)
Cite in your paper:
S.Grimme, S.Ehrlich, L.Goerigk, J Comput Chem, (2011), 32, 1456–1465 
S.Grimme, J.Antony, S.Ehrlich and H.Krieg, J.Chem.Phys., 132, (2010), 154104 
   

================================================================================

----- Orbital basis set information -----
Your calculation utilizes the basis: def2-SVP
   F. Weigend and R. Ahlrichs, Phys. Chem. Chem. Phys. 7, 3297 (2005).

----- AuxJ basis set information -----
Your calculation utilizes the auxiliary basis: def2/J
   F. Weigend, Phys. Chem. Chem. Phys. 8, 1057 (2006).

================================================================================
                                        WARNINGS
                       Please study these warnings very carefully!
================================================================================


WARNING: your system is open-shell and RHF/RKS was chosen
  ===> : WILL SWITCH to UHF/UKS


INFO   : the flag for use of the SHARK integral package has been found!

================================================================================
                                       INPUT FILE
================================================================================
NAME = 1_2_orca.inp
|  1> ! EnGrad PBE0 RIJCOSX D3BJ def2-SVP def2/J 
|  2> %output 
|  3> xyzfile=True 
|  4> end 
|  5> %scf 
|  6> maxiter 250 
|  7> end
|  8> %output
|  9> Print[P_Hirshfeld] = 1
| 10> end
| 11> % maxcore
| 12> 4000
| 13> *xyz 0 2
| 14> O   -2.51522333  -0.46484474   0.75701082 
| 15> O   -1.33666845   0.16239289   1.14278453 
| 16> C   -0.62293735   0.48798765  -0.04530760 
| 17> C    0.57616036   1.29869727   0.35248468 
| 18> C    1.73845984   0.58629972   0.08418159 
| 19> C    1.44874613  -0.62579376  -0.53117682 
| 20> C   -0.02886999  -0.75812637  -0.73734610 
| 21> H   -2.63011388  -1.10697985   1.47273921 
| 22> H   -1.32012381   1.04290253  -0.70135960 
| 23> H    0.50362643   2.27267840   0.83624410 
| 24> H    2.74535971   0.93583128   0.31815067 
| 25> H    2.18009506  -1.36850024  -0.84790522 
| 26> H   -0.28254144  -0.79315528  -1.81106005 
| 27> H   -0.45622431  -1.66944677  -0.29005702 
| 28> *
| 29> 
| 30>                          ****END OF INPUT****
================================================================================

                     *******************************
                     * Energy+Gradient Calculation *
                     *******************************

---------------------------------
CARTESIAN COORDINATES (ANGSTROEM)
---------------------------------
  O     -2.515223   -0.464845    0.757011
  O     -1.336668    0.162393    1.142785
  C     -0.622937    0.487988   -0.045308
  C      0.576160    1.298697    0.352485
  C      1.738460    0.586300    0.084182
  C      1.448746   -0.625794   -0.531177
  C     -0.028870   -0.758126   -0.737346
  H     -2.630114   -1.106980    1.472739
  H     -1.320124    1.042903   -0.701360
  H      0.503626    2.272678    0.836244
  H      2.745360    0.935831    0.318151
  H      2.180095   -1.368500   -0.847905
  H     -0.282541   -0.793155   -1.811060
  H     -0.456224   -1.669447   -0.290057

----------------------------
CARTESIAN COORDINATES (A.U.)
----------------------------
  NO LB      ZA    FRAG     MASS         X           Y           Z
   0 O     8.0000    0    15.999   -4.753083   -0.878429    1.430543
   1 O     8.0000    0    15.999   -2.525937    0.306878    2.159550
   2 C     6.0000    0    12.011   -1.177181    0.922163   -0.085619
   3 C     6.0000    0    12.011    1.088785    2.454182    0.666100
   4 C     6.0000    0    12.011    3.285213    1.107946    0.159080
   5 C     6.0000    0    12.011    2.737733   -1.182579   -1.003779
   6 C     6.0000    0    12.011   -0.054556   -1.432651   -1.393382
   7 H     1.0000    0     1.008   -4.970195   -2.091889    2.783074
   8 H     1.0000    0     1.008   -2.494672    1.970800   -1.325378
   9 H     1.0000    0     1.008    0.951716    4.294740    1.580272
  10 H     1.0000    0     1.008    5.187978    1.768465    0.601218
  11 H     1.0000    0     1.008    4.119783   -2.586091   -1.602309
  12 H     1.0000    0     1.008   -0.533926   -1.498846   -3.422408
  13 H     1.0000    0     1.008   -0.862139   -3.154797   -0.548128

--------------------------------
INTERNAL COORDINATES (ANGSTROEM)
--------------------------------
 O      0   0   0     0.000000000000     0.00000000     0.00000000
 O      1   0   0     1.389690614845     0.00000000     0.00000000
 C      2   1   0     1.423722915533   107.26043577     0.00000000
 C      3   2   1     1.501107625760   107.62725650   173.86752890
 C      4   3   2     1.389401633279   109.88610902   113.70151209
 C      5   4   3     1.389881509618   110.99412836     3.06434859
 C      6   5   4     1.497787398054   110.09825913     1.37489081
 H      1   2   3     0.968403049472   101.22908440   145.30101673
 H      3   2   1     1.106527772248   107.07321593    52.18572317
 H      4   3   2     1.089919074535   123.16719153   297.23196969
 H      5   4   3     1.091220046571   124.49020306   182.59761948
 H      6   5   4     1.089403989442   125.68531541   179.80563373
 H      7   6   5     1.103828734680   111.30996090   115.84205694
 H      7   6   5     1.101455449560   113.57618282   235.68809381

---------------------------
INTERNAL COORDINATES (A.U.)
---------------------------
 O      0   0   0     0.000000000000     0.00000000     0.00000000
 O      1   0   0     2.626134672937     0.00000000     0.00000000
 C      2   1   0     2.690446400946   107.26043577     0.00000000
 C      3   2   1     2.836682310228   107.62725650   173.86752890
 C      4   3   2     2.625588576920   109.88610902   113.70151209
 C      5   4   3     2.626495411779   110.99412836     3.06434859
 C      6   5   4     2.830407989160   110.09825913     1.37489081
 H      1   2   3     1.830016550756   101.22908440   145.30101673
 H      3   2   1     2.091034449127   107.07321593    52.18572317
 H      4   3   2     2.059648559009   123.16719153   297.23196969
 H      5   4   3     2.062107039864   124.49020306   182.59761948
 H      6   5   4     2.058675189247   125.68531541   179.80563373
 H      7   6   5     2.085934007298   111.30996090   115.84205694
 H      7   6   5     2.081449148384   113.57618282   235.68809381

---------------------
BASIS SET INFORMATION
---------------------
There are 3 groups of distinct atoms

 Group   1 Type O   : 7s4p1d contracted to 3s2p1d pattern {511/31/1}
 Group   2 Type C   : 7s4p1d contracted to 3s2p1d pattern {511/31/1}
 Group   3 Type H   : 4s1p contracted to 2s1p pattern {31/1}

Atom   0O    basis set group =>   1
Atom   1O    basis set group =>   1
Atom   2C    basis set group =>   2
Atom   3C    basis set group =>   2
Atom   4C    basis set group =>   2
Atom   5C    basis set group =>   2
Atom   6C    basis set group =>   2
Atom   7H    basis set group =>   3
Atom   8H    basis set group =>   3
Atom   9H    basis set group =>   3
Atom  10H    basis set group =>   3
Atom  11H    basis set group =>   3
Atom  12H    basis set group =>   3
Atom  13H    basis set group =>   3
---------------------------------
AUXILIARY/J BASIS SET INFORMATION
---------------------------------
There are 3 groups of distinct atoms

 Group   1 Type O   : 12s5p4d2f1g contracted to 6s4p3d1f1g pattern {711111/2111/211/2/1}
 Group   2 Type C   : 12s5p4d2f1g contracted to 6s4p3d1f1g pattern {711111/2111/211/2/1}
 Group   3 Type H   : 5s2p1d contracted to 3s1p1d pattern {311/2/1}

Atom   0O    basis set group =>   1
Atom   1O    basis set group =>   1
Atom   2C    basis set group =>   2
Atom   3C    basis set group =>   2
Atom   4C    basis set group =>   2
Atom   5C    basis set group =>   2
Atom   6C    basis set group =>   2
Atom   7H    basis set group =>   3
Atom   8H    basis set group =>   3
Atom   9H    basis set group =>   3
Atom  10H    basis set group =>   3
Atom  11H    basis set group =>   3
Atom  12H    basis set group =>   3
Atom  13H    basis set group =>   3
------------------------------------------------------------------------------
                           ORCA GTO INTEGRAL CALCULATION
                           -- RI-GTO INTEGRALS CHOSEN --
------------------------------------------------------------------------------
------------------------------------------------------------------------------
                   ___                                                        
                  /   \      - P O W E R E D   B Y -                         
                 /     \                                                     
                 |  |  |   _    _      __       _____    __    __             
                 |  |  |  | |  | |    /  \     |  _  \  |  |  /  |          
                  \  \/   | |  | |   /    \    | | | |  |  | /  /          
                 / \  \   | |__| |  /  /\  \   | |_| |  |  |/  /          
                |  |  |   |  __  | /  /__\  \  |    /   |      \           
                |  |  |   | |  | | |   __   |  |    \   |  |\   \          
                \     /   | |  | | |  |  |  |  | |\  \  |  | \   \       
                 \___/    |_|  |_| |__|  |__|  |_| \__\ |__|  \__/        
                                                                              
                      - O R C A' S   B I G   F R I E N D -                    
                                      &                                       
                       - I N T E G R A L  F E E D E R -                       
                                                                              
 v1 FN, 2020, v2 2021                                                         
------------------------------------------------------------------------------


Reading SHARK input file 1_2_orca.SHARKINP.tmp ... ok
----------------------
SHARK INTEGRAL PACKAGE
----------------------

Number of atoms                             ...     14
Number of basis functions                   ...    133
Number of shells                            ...     63
Maximum angular momentum                    ...      2
Integral batch strategy                     ... SHARK/LIBINT Hybrid
RI-J (if used) integral strategy            ... SPLIT-RIJ (Revised 2003 algorithm where possible)
Printlevel                                  ...      1
Contraction scheme used                     ... SEGMENTED contraction
Coulomb Range Separation                    ... NOT USED
Exchange Range Separation                   ... NOT USED
Finite Nucleus Model                        ... NOT USED
Auxiliary Coulomb fitting basis             ... AVAILABLE
   # of basis functions in Aux-J            ...    420
   # of shells in Aux-J                     ...    140
   Maximum angular momentum in Aux-J        ...      4
Auxiliary J/K fitting basis                 ... NOT available
Auxiliary Correlation fitting basis         ... NOT available
Auxiliary 'external' fitting basis          ... NOT available
Integral threshold                          ...     2.500000e-11
Primitive cut-off                           ...     2.500000e-12
Primitive pair pre-selection threshold      ...     2.500000e-12

Calculating pre-screening integrals         ... done (  0.0 sec) Dimension = 63
Organizing shell pair data                  ... done (  0.0 sec)
Shell pair information
Total number of shell pairs                 ...      2016
Shell pairs after pre-screening             ...      1941
Total number of primitive shell pairs       ...      7252
Primitive shell pairs kept                  ...      5313
          la=0 lb=0:    603 shell pairs
          la=1 lb=0:    709 shell pairs
          la=1 lb=1:    225 shell pairs
          la=2 lb=0:    235 shell pairs
          la=2 lb=1:    142 shell pairs
          la=2 lb=2:     27 shell pairs

Calculating one electron integrals          ... done (  0.0 sec)
Calculating RI/J V-Matrix + Cholesky decomp.... done (  0.0 sec)
Calculating Nuclear repulsion               ... done (  0.0 sec) ENN=    299.003405851659 Eh

SHARK setup successfully completed in   0.1 seconds

Maximum memory used throughout the entire GTOINT-calculation: 16.8 MB
-------------------------------------------------------------------------------
                                 ORCA SCF
-------------------------------------------------------------------------------

------------
SCF SETTINGS
------------
Hamiltonian:
 Density Functional     Method          .... DFT(GTOs)
 Exchange Functional    Exchange        .... PBE
   PBE kappa parameter   XKappa         ....  0.804000
   PBE mue parameter    XMuePBE         ....  0.219520
 Correlation Functional Correlation     .... PBE
   PBE beta parameter  CBetaPBE         ....  0.066725
 LDA part of GGA corr.  LDAOpt          .... PW91-LDA
 Gradients option       PostSCFGGA      .... off
 Hybrid DFT is turned on
   Fraction HF Exchange ScalHFX         ....  0.250000
   Scaling of DF-GGA-X  ScalDFX         ....  0.750000
   Scaling of DF-GGA-C  ScalDFC         ....  1.000000
   Scaling of DF-LDA-C  ScalLDAC        ....  1.000000
   Perturbative correction              ....  0.000000
   Density functional embedding theory  .... OFF
   NL short-range parameter             ....  6.900000
 RI-approximation to the Coulomb term is turned on
   Number of AuxJ basis functions       .... 420
   RIJ-COSX (HFX calculated with COS-X)).... on


General Settings:
 Integral files         IntName         .... 1_2_orca
 Hartree-Fock type      HFTyp           .... UHF
 Total Charge           Charge          ....    0
 Multiplicity           Mult            ....    2
 Number of Electrons    NEL             ....   53
 Basis Dimension        Dim             ....  133
 Nuclear Repulsion      ENuc            ....    299.0034058517 Eh

Convergence Acceleration:
 DIIS                   CNVDIIS         .... on
   Start iteration      DIISMaxIt       ....    12
   Startup error        DIISStart       ....  0.200000
   # of expansion vecs  DIISMaxEq       ....     5
   Bias factor          DIISBfac        ....   1.050
   Max. coefficient     DIISMaxC        ....  10.000
 Trust-Rad. Augm. Hess. CNVTRAH         .... auto
   Auto Start mean grad. ratio tolernc. ....  1.125000
   Auto Start start iteration           ....    20
   Auto Start num. interpolation iter.  ....    10
   Max. Number of Micro iterations      ....    16
   Max. Number of Macro iterations      .... Maxiter - #DIIS iter
   Number of Davidson start vectors     ....     2
   Converg. threshold I  (grad. norm)   ....   1.000e-05
   Converg. threshold II (energy diff.) ....   1.000e-08
   Grad. Scal. Fac. for Micro threshold ....   0.100
   Minimum threshold for Micro iter.    ....   0.010
   NR start threshold (gradient norm)   ....   0.001
   Initial trust radius                 ....   0.400
   Minimum AH scaling param. (alpha)    ....   1.000
   Maximum AH scaling param. (alpha)    .... 1000.000
   Orbital update algorithm             .... Taylor
   White noise on init. David. guess    .... on
   Maximum white noise                  ....   0.010
   Quad. conv. algorithm                .... NR
 SOSCF                  CNVSOSCF        .... off
 Level Shifting         CNVShift        .... on
   Level shift para.    LevelShift      ....    0.2500
   Turn off err/grad.   ShiftErr        ....    0.0010
 Zerner damping         CNVZerner       .... off
 Static damping         CNVDamp         .... on
   Fraction old density DampFac         ....    0.7000
   Max. Damping (<1)    DampMax         ....    0.9800
   Min. Damping (>=0)   DampMin         ....    0.0000
   Turn off err/grad.   DampErr         ....    0.1000
 Fernandez-Rico         CNVRico         .... off

SCF Procedure:
 Maximum # iterations   MaxIter         ....   250
 SCF integral mode      SCFMode         .... Direct
   Integral package                     .... SHARK and LIBINT hybrid scheme
 Reset frequency        DirectResetFreq ....    20
 Integral Threshold     Thresh          ....  2.500e-11 Eh
 Primitive CutOff       TCut            ....  2.500e-12 Eh

Convergence Tolerance:
 Convergence Check Mode ConvCheckMode   .... Total+1el-Energy
 Convergence forced     ConvForced      .... 0
 Energy Change          TolE            ....  1.000e-08 Eh
 1-El. energy change                    ....  1.000e-05 Eh
 DIIS Error             TolErr          ....  5.000e-07


Diagonalization of the overlap matrix:
Smallest eigenvalue                        ... 9.996e-04
Time for diagonalization                   ...    0.003 sec
Threshold for overlap eigenvalues          ... 1.000e-08
Number of eigenvalues below threshold      ... 0
Time for construction of square roots      ...    0.001 sec
Total time needed                          ...    0.004 sec

Time for model grid setup =    0.119 sec

------------------------------
INITIAL GUESS: MODEL POTENTIAL
------------------------------
Loading Hartree-Fock densities                     ... done
Calculating cut-offs                               ... done
Initializing the effective Hamiltonian             ... done
Setting up the integral package (SHARK)            ... done
Starting the Coulomb interaction                   ... done (   0.1 sec)
Reading the grid                                   ... done
Mapping shells                                     ... done
Starting the XC term evaluation                    ... done (   0.1 sec)
  promolecular density results
     # of electrons  =     52.998573793
     EX              =    -43.891262206
     EC              =     -1.761040331
     EX+EC           =    -45.652302537
Transforming the Hamiltonian                       ... done (   0.0 sec)
Diagonalizing the Hamiltonian                      ... done (   0.0 sec)
Back transforming the eigenvectors                 ... done (   0.0 sec)
Now organizing SCF variables                       ... done
                      ------------------
                      INITIAL GUESS DONE (   0.3 sec)
                      ------------------
-------------------
DFT GRID GENERATION
-------------------

General Integration Accuracy     IntAcc      ... 4.388
Radial Grid Type                 RadialGrid  ... OptM3 with GC (2021)
Angular Grid (max. ang.)         AngularGrid ... 4 (Lebedev-302)
Angular grid pruning method      GridPruning ... 4 (adaptive)
Weight generation scheme         WeightScheme... Becke
Basis function cutoff            BFCut       ... 1.0000e-11
Integration weight cutoff        WCut        ... 1.0000e-14
Angular grids for H and He will be reduced by one unit
Partially contracted basis set               ... off
Rotationally invariant grid construction     ... off

Total number of grid points                  ...    64871
Total number of batches                      ...     1021
Average number of points per batch           ...       63
Average number of grid points per atom       ...     4634
Time for grid setup =    0.491 sec

--------------------
COSX GRID GENERATION
--------------------

GRIDX 1
-------
General Integration Accuracy     IntAcc      ... 3.816
Radial Grid Type                 RadialGrid  ... OptM3 with GC (2021)
Angular Grid (max. ang.)         AngularGrid ... 1 (Lebedev-50)
Angular grid pruning method      GridPruning ... 4 (adaptive)
Weight generation scheme         WeightScheme... Becke
Basis function cutoff            BFCut       ... 1.0000e-11
Integration weight cutoff        WCut        ... 1.0000e-14
Angular grids for H and He will be reduced by one unit
Partially contracted basis set               ... on
Rotationally invariant grid construction     ... off

Total number of grid points                  ...     8292
Total number of batches                      ...      135
Average number of points per batch           ...       61
Average number of grid points per atom       ...      592
UseSFitting                                  ... on

GRIDX 2
-------
General Integration Accuracy     IntAcc      ... 4.020
Radial Grid Type                 RadialGrid  ... OptM3 with GC (2021)
Angular Grid (max. ang.)         AngularGrid ... 2 (Lebedev-110)
Angular grid pruning method      GridPruning ... 4 (adaptive)
Weight generation scheme         WeightScheme... Becke
Basis function cutoff            BFCut       ... 1.0000e-11
Integration weight cutoff        WCut        ... 1.0000e-14
Angular grids for H and He will be reduced by one unit
Partially contracted basis set               ... on
Rotationally invariant grid construction     ... off

Total number of grid points                  ...    18043
Total number of batches                      ...      288
Average number of points per batch           ...       62
Average number of grid points per atom       ...     1289
UseSFitting                                  ... on

GRIDX 3
-------
General Integration Accuracy     IntAcc      ... 4.338
Radial Grid Type                 RadialGrid  ... OptM3 with GC (2021)
Angular Grid (max. ang.)         AngularGrid ... 3 (Lebedev-194)
Angular grid pruning method      GridPruning ... 4 (adaptive)
Weight generation scheme         WeightScheme... Becke
Basis function cutoff            BFCut       ... 1.0000e-11
Integration weight cutoff        WCut        ... 1.0000e-14
Angular grids for H and He will be reduced by one unit
Partially contracted basis set               ... on
Rotationally invariant grid construction     ... off

Total number of grid points                  ...    39654
Total number of batches                      ...      627
Average number of points per batch           ...       63
Average number of grid points per atom       ...     2832
UseSFitting                                  ... on

Time for X-Grid setup             =    0.554 sec

--------------
SCF ITERATIONS
--------------
ITER       Energy         Delta-E        Max-DP      RMS-DP      [F,P]     Damp
               ***  Starting incremental Fock matrix formation  ***
  0   -344.2599602125   0.000000000000 0.03129878  0.00100751  0.0693217 0.7000
  1   -344.3136239569  -0.053663744488 0.01997611  0.00072036  0.0352438 0.7000
                               ***Turning on DIIS***
  2   -344.3384218377  -0.024797880770 0.03127312  0.00133411  0.0168537 0.0000
  3   -344.3766689981  -0.038247160419 0.01476712  0.00051501  0.0182374 0.0000
  4   -344.3850955757  -0.008426577585 0.00489553  0.00013547  0.0037832 0.0000
  5   -344.3855420204  -0.000446444721 0.00369507  0.00008552  0.0028071 0.0000
  6   -344.3857115879  -0.000169567414 0.00286091  0.00006089  0.0018586 0.0000
  7   -344.3858150406  -0.000103452707 0.00239767  0.00004649  0.0010434 0.0000
  8   -344.3858551821  -0.000040141541 0.00182192  0.00003669  0.0005960 0.0000
               *** Restarting incremental Fock matrix formation ***
                                   *** Resetting DIIS ***
  9   -344.3858066125   0.000048569650 0.00058816  0.00001355  0.0002260 0.0000
 10   -344.3858065920   0.000000020414 0.00028367  0.00000665  0.0002582 0.0000
 11   -344.3858075917  -0.000000999704 0.00008434  0.00000218  0.0000564 0.0000
 12   -344.3858076524  -0.000000060644 0.00008198  0.00000156  0.0000385 0.0000
 13   -344.3858076884  -0.000000035980 0.00003269  0.00000060  0.0000107 0.0000
 14   -344.3858076949  -0.000000006522 0.00000672  0.00000019  0.0000107 0.0000
                 **** Energy Check signals convergence ****

               *****************************************************
               *                     SUCCESS                       *
               *           SCF CONVERGED AFTER  15 CYCLES          *
               *****************************************************

Old exchange energy                            =    -11.188285208 Eh
New exchange energy                            =    -11.188227825 Eh
Exchange energy change after final integration =      0.000057383 Eh
Total energy after final integration           =   -344.385750309 Eh
Final COS-X integration done in                =     5.157 sec

----------------
TOTAL SCF ENERGY
----------------

Total Energy       :         -344.38575031 Eh           -9371.21269 eV

Components:
Nuclear Repulsion  :          299.00340585 Eh            8136.29631 eV
Electronic Energy  :         -643.38915616 Eh          -17507.50900 eV
One Electron Energy:        -1061.18463350 Eh          -28876.30192 eV
Two Electron Energy:          417.79547734 Eh           11368.79292 eV
Max COSX asymmetry :            0.00000068 Eh               0.00002 eV

Virial components:
Potential Energy   :         -685.96906279 Eh          -18666.16717 eV
Kinetic Energy     :          341.58331248 Eh            9294.95448 eV
Virial Ratio       :            2.00820426


DFT components:
N(Alpha)           :       27.000001398279 electrons
N(Beta)            :       25.999999151364 electrons
N(Total)           :       53.000000549643 electrons
E(X)               :      -33.485893298382 Eh       
E(C)               :       -1.772479932334 Eh       
E(XC)              :      -35.258373230717 Eh       
DFET-embed. en.    :        0.000000000000 Eh       

---------------
SCF CONVERGENCE
---------------

  Last Energy change         ...    3.2127e-09  Tolerance :   1.0000e-08
  Last MAX-Density change    ...    0.0000e+00  Tolerance :   1.0000e-07
  Last RMS-Density change    ...    0.0000e+00  Tolerance :   5.0000e-09
  Last DIIS Error            ...    3.1356e-06  Tolerance :   5.0000e-07

             **** THE GBW FILE WAS UPDATED (1_2_orca.gbw) ****
             **** DENSITY 1_2_orca.scfp WAS UPDATED ****
             **** ENERGY FILE WAS UPDATED (1_2_orca.en.tmp) ****
----------------------
UHF SPIN CONTAMINATION
----------------------

Warning: in a DFT calculation there is little theoretical justification to 
         calculate <S**2> as in Hartree-Fock theory. We will do it anyways
         but you should keep in mind that the values have only limited relevance

Expectation value of <S**2>     :     0.787104
Ideal value S*(S+1) for S=0.5   :     0.750000
Deviation                       :     0.037104

             **** THE GBW FILE WAS UPDATED (1_2_orca.gbw) ****
             **** DENSITY 1_2_orca.scfp WAS UPDATED ****
----------------
ORBITAL ENERGIES
----------------
                 SPIN UP ORBITALS
  NO   OCC          E(Eh)            E(eV) 
   0   1.0000     -19.252995      -523.9006 
   1   1.0000     -19.252242      -523.8801 
   2   1.0000     -10.284501      -279.8555 
   3   1.0000     -10.245928      -278.8059 
   4   1.0000     -10.242846      -278.7220 
   5   1.0000     -10.239229      -278.6236 
   6   1.0000     -10.234601      -278.4977 
   7   1.0000      -1.157551       -31.4986 
   8   1.0000      -0.927842       -25.2479 
   9   1.0000      -0.858648       -23.3650 
  10   1.0000      -0.731604       -19.9080 
  11   1.0000      -0.708978       -19.2923 
  12   1.0000      -0.586908       -15.9706 
  13   1.0000      -0.564768       -15.3681 
  14   1.0000      -0.546110       -14.8604 
  15   1.0000      -0.531650       -14.4669 
  16   1.0000      -0.490133       -13.3372 
  17   1.0000      -0.453878       -12.3506 
  18   1.0000      -0.417185       -11.3522 
  19   1.0000      -0.403660       -10.9842 
  20   1.0000      -0.390876       -10.6363 
  21   1.0000      -0.385864       -10.4999 
  22   1.0000      -0.361271        -9.8307 
  23   1.0000      -0.336387        -9.1535 
  24   1.0000      -0.323248        -8.7960 
  25   1.0000      -0.247977        -6.7478 
  26   1.0000      -0.200305        -5.4506 
  27   0.0000       0.028953         0.7879 
  28   0.0000       0.067693         1.8420 
  29   0.0000       0.085760         2.3336 
  30   0.0000       0.106024         2.8851 
  31   0.0000       0.122919         3.3448 
  32   0.0000       0.124762         3.3949 
  33   0.0000       0.136045         3.7020 
  34   0.0000       0.145706         3.9649 
  35   0.0000       0.162172         4.4129 
  36   0.0000       0.196912         5.3583 
  37   0.0000       0.207798         5.6545 
  38   0.0000       0.245436         6.6786 
  39   0.0000       0.297175         8.0865 
  40   0.0000       0.351028         9.5520 
  41   0.0000       0.389289        10.5931 
  42   0.0000       0.412448        11.2233 
  43   0.0000       0.450544        12.2599 
  44   0.0000       0.469502        12.7758 
  45   0.0000       0.492005        13.3881 
  46   0.0000       0.505398        13.7526 
  47   0.0000       0.538804        14.6616 
  48   0.0000       0.549098        14.9417 
  49   0.0000       0.561388        15.2761 
  50   0.0000       0.588759        16.0209 
  51   0.0000       0.607713        16.5367 
  52   0.0000       0.622767        16.9463 
  53   0.0000       0.632978        17.2242 
  54   0.0000       0.656053        17.8521 
  55   0.0000       0.661276        17.9942 
  56   0.0000       0.670795        18.2533 
  57   0.0000       0.686268        18.6743 
  58   0.0000       0.703606        19.1461 
  59   0.0000       0.711599        19.3636 
  60   0.0000       0.731824        19.9140 
  61   0.0000       0.748387        20.3646 
  62   0.0000       0.778168        21.1750 
  63   0.0000       0.796718        21.6798 
  64   0.0000       0.807328        21.9685 
  65   0.0000       0.834294        22.7023 
  66   0.0000       0.917990        24.9798 
  67   0.0000       0.964161        26.2362 
  68   0.0000       1.019511        27.7423 
  69   0.0000       1.051035        28.6001 
  70   0.0000       1.075984        29.2790 
  71   0.0000       1.084513        29.5111 
  72   0.0000       1.161697        31.6114 
  73   0.0000       1.189033        32.3552 
  74   0.0000       1.217749        33.1366 
  75   0.0000       1.273918        34.6651 
  76   0.0000       1.281182        34.8627 
  77   0.0000       1.284017        34.9399 
  78   0.0000       1.369338        37.2616 
  79   0.0000       1.441352        39.2212 
  80   0.0000       1.468267        39.9536 
  81   0.0000       1.536942        41.8223 
  82   0.0000       1.551894        42.2292 
  83   0.0000       1.604608        43.6636 
  84   0.0000       1.623560        44.1793 
  85   0.0000       1.660221        45.1769 
  86   0.0000       1.674993        45.5789 
  87   0.0000       1.709968        46.5306 
  88   0.0000       1.721280        46.8384 
  89   0.0000       1.755487        47.7692 
  90   0.0000       1.779438        48.4210 
  91   0.0000       1.806499        49.1573 
  92   0.0000       1.835896        49.9573 
  93   0.0000       1.864064        50.7238 
  94   0.0000       1.877056        51.0773 
  95   0.0000       1.890056        51.4310 
  96   0.0000       1.929624        52.5077 
  97   0.0000       1.944174        52.9037 
  98   0.0000       1.983376        53.9704 
  99   0.0000       2.035727        55.3950 
 100   0.0000       2.055545        55.9342 
 101   0.0000       2.106338        57.3164 
 102   0.0000       2.121964        57.7416 
 103   0.0000       2.142277        58.2943 
 104   0.0000       2.193972        59.7010 
 105   0.0000       2.223728        60.5107 
 106   0.0000       2.258324        61.4521 
 107   0.0000       2.282625        62.1134 
 108   0.0000       2.337794        63.6146 
 109   0.0000       2.365199        64.3603 
 110   0.0000       2.387655        64.9714 
 111   0.0000       2.466627        67.1203 
 112   0.0000       2.497672        67.9651 
 113   0.0000       2.508597        68.2624 
 114   0.0000       2.529678        68.8360 
 115   0.0000       2.625973        71.4563 
 116   0.0000       2.664857        72.5145 
 117   0.0000       2.679378        72.9096 
 118   0.0000       2.712381        73.8076 
 119   0.0000       2.721147        74.0462 
 120   0.0000       2.823784        76.8391 
 121   0.0000       2.851408        77.5907 
 122   0.0000       2.926703        79.6396 
 123   0.0000       2.968014        80.7638 
 124   0.0000       3.028587        82.4121 
 125   0.0000       3.057217        83.1911 
 126   0.0000       3.114402        84.7472 
 127   0.0000       3.148606        85.6779 
 128   0.0000       3.238180        88.1154 
 129   0.0000       3.373376        91.7942 
 130   0.0000       3.414685        92.9183 
 131   0.0000       3.610786        98.2545 
 132   0.0000       3.943001       107.2945 

                 SPIN DOWN ORBITALS
  NO   OCC          E(Eh)            E(eV) 
   0   1.0000     -19.252065      -523.8753 
   1   1.0000     -19.252024      -523.8742 
   2   1.0000     -10.285172      -279.8738 
   3   1.0000     -10.243410      -278.7373 
   4   1.0000     -10.235639      -278.5259 
   5   1.0000     -10.235244      -278.5151 
   6   1.0000     -10.232730      -278.4468 
   7   1.0000      -1.156236       -31.4628 
   8   1.0000      -0.924355       -25.1530 
   9   1.0000      -0.849855       -23.1257 
  10   1.0000      -0.725390       -19.7389 
  11   1.0000      -0.695027       -18.9126 
  12   1.0000      -0.578233       -15.7345 
  13   1.0000      -0.561508       -15.2794 
  14   1.0000      -0.539646       -14.6845 
  15   1.0000      -0.527608       -14.3569 
  16   1.0000      -0.486554       -13.2398 
  17   1.0000      -0.450808       -12.2671 
  18   1.0000      -0.408885       -11.1263 
  19   1.0000      -0.398115       -10.8333 
  20   1.0000      -0.387802       -10.5526 
  21   1.0000      -0.380428       -10.3520 
  22   1.0000      -0.358763        -9.7624 
  23   1.0000      -0.331290        -9.0148 
  24   1.0000      -0.299450        -8.1484 
  25   1.0000      -0.247162        -6.7256 
  26   0.0000      -0.062222        -1.6932 
  27   0.0000       0.045925         1.2497 
  28   0.0000       0.070144         1.9087 
  29   0.0000       0.090294         2.4570 
  30   0.0000       0.111953         3.0464 
  31   0.0000       0.126514         3.4426 
  32   0.0000       0.127438         3.4678 
  33   0.0000       0.141914         3.8617 
  34   0.0000       0.149323         4.0633 
  35   0.0000       0.166765         4.5379 
  36   0.0000       0.201051         5.4709 
  37   0.0000       0.211620         5.7585 
  38   0.0000       0.250996         6.8299 
  39   0.0000       0.304537         8.2869 
  40   0.0000       0.358477         9.7547 
  41   0.0000       0.393625        10.7111 
  42   0.0000       0.415690        11.3115 
  43   0.0000       0.470131        12.7929 
  44   0.0000       0.476645        12.9702 
  45   0.0000       0.501837        13.6557 
  46   0.0000       0.513873        13.9832 
  47   0.0000       0.548980        14.9385 
  48   0.0000       0.555172        15.1070 
  49   0.0000       0.589576        16.0432 
  50   0.0000       0.599958        16.3257 
  51   0.0000       0.611988        16.6530 
  52   0.0000       0.631396        17.1811 
  53   0.0000       0.642847        17.4928 
  54   0.0000       0.663670        18.0594 
  55   0.0000       0.669611        18.2210 
  56   0.0000       0.677135        18.4258 
  57   0.0000       0.688283        18.7291 
  58   0.0000       0.704660        19.1748 
  59   0.0000       0.713249        19.4085 
  60   0.0000       0.736343        20.0369 
  61   0.0000       0.753266        20.4974 
  62   0.0000       0.783287        21.3143 
  63   0.0000       0.803315        21.8593 
  64   0.0000       0.814569        22.1655 
  65   0.0000       0.837890        22.8001 
  66   0.0000       0.920005        25.0346 
  67   0.0000       0.965607        26.2755 
  68   0.0000       1.022077        27.8121 
  69   0.0000       1.054357        28.6905 
  70   0.0000       1.079582        29.3769 
  71   0.0000       1.090288        29.6683 
  72   0.0000       1.163756        31.6674 
  73   0.0000       1.193931        32.4885 
  74   0.0000       1.221928        33.2504 
  75   0.0000       1.279611        34.8200 
  76   0.0000       1.283738        34.9323 
  77   0.0000       1.296936        35.2914 
  78   0.0000       1.370920        37.3046 
  79   0.0000       1.442794        39.2604 
  80   0.0000       1.470552        40.0158 
  81   0.0000       1.541800        41.9545 
  82   0.0000       1.562981        42.5309 
  83   0.0000       1.610359        43.8201 
  84   0.0000       1.627735        44.2929 
  85   0.0000       1.664749        45.3001 
  86   0.0000       1.676828        45.6288 
  87   0.0000       1.716540        46.7094 
  88   0.0000       1.723418        46.8966 
  89   0.0000       1.762196        47.9518 
  90   0.0000       1.785224        48.5784 
  91   0.0000       1.813660        49.3522 
  92   0.0000       1.845804        50.2269 
  93   0.0000       1.873802        50.9888 
  94   0.0000       1.883280        51.2467 
  95   0.0000       1.902703        51.7752 
  96   0.0000       1.938364        52.7456 
  97   0.0000       1.955175        53.2030 
  98   0.0000       1.986294        54.0498 
  99   0.0000       2.040301        55.5194 
 100   0.0000       2.062947        56.1356 
 101   0.0000       2.115300        57.5602 
 102   0.0000       2.125696        57.8431 
 103   0.0000       2.147180        58.4277 
 104   0.0000       2.205008        60.0013 
 105   0.0000       2.224388        60.5287 
 106   0.0000       2.267721        61.7078 
 107   0.0000       2.297275        62.5120 
 108   0.0000       2.352711        64.0205 
 109   0.0000       2.367336        64.4185 
 110   0.0000       2.397466        65.2384 
 111   0.0000       2.474252        67.3278 
 112   0.0000       2.500523        68.0427 
 113   0.0000       2.516267        68.4711 
 114   0.0000       2.539843        69.1126 
 115   0.0000       2.633444        71.6597 
 116   0.0000       2.667103        72.5756 
 117   0.0000       2.684607        73.0519 
 118   0.0000       2.717104        73.9362 
 119   0.0000       2.722196        74.0747 
 120   0.0000       2.828189        76.9589 
 121   0.0000       2.855381        77.6989 
 122   0.0000       2.928589        79.6910 
 123   0.0000       2.968690        80.7822 
 124   0.0000       3.031480        82.4908 
 125   0.0000       3.059973        83.2661 
 126   0.0000       3.117153        84.8221 
 127   0.0000       3.149442        85.7007 
 128   0.0000       3.239835        88.1604 
 129   0.0000       3.374615        91.8279 
 130   0.0000       3.417761        93.0020 
 131   0.0000       3.611106        98.2632 
 132   0.0000       3.943816       107.3167 

                    ********************************
                    * MULLIKEN POPULATION ANALYSIS *
                    ********************************

--------------------------------------------
MULLIKEN ATOMIC CHARGES AND SPIN POPULATIONS
--------------------------------------------
   0 O :   -0.158529    0.006909
   1 O :   -0.281036    0.014172
   2 C :    0.127211   -0.048297
   3 C :   -0.059636    0.704217
   4 C :   -0.003210   -0.326097
   5 C :   -0.107966    0.708321
   6 C :    0.042620   -0.063764
   7 H :    0.191337   -0.000186
   8 H :    0.041115    0.018050
   9 H :    0.040166   -0.034098
  10 H :    0.029198    0.011228
  11 H :    0.034482   -0.035056
  12 H :    0.057654    0.025730
  13 H :    0.046596    0.018872
Sum of atomic charges         :   -0.0000000
Sum of atomic spin populations:    1.0000000

-----------------------------------------------------
MULLIKEN REDUCED ORBITAL CHARGES AND SPIN POPULATIONS
-----------------------------------------------------
CHARGE
  0 O s       :     3.764407  s :     3.764407
      pz      :     1.563762  p :     4.373298
      px      :     1.308972
      py      :     1.500563
      dz2     :     0.002851  d :     0.020825
      dxz     :     0.004226
      dyz     :     0.004427
      dx2y2   :     0.005226
      dxy     :     0.004094
  1 O s       :     3.849003  s :     3.849003
      pz      :     1.502510  p :     4.407230
      px      :     1.177155
      py      :     1.727565
      dz2     :     0.005236  d :     0.024803
      dxz     :     0.006508
      dyz     :     0.003255
      dx2y2   :     0.004445
      dxy     :     0.005359
  2 C s       :     3.063288  s :     3.063288
      pz      :     0.816529  p :     2.740963
      px      :     0.932811
      py      :     0.991623
      dz2     :     0.011836  d :     0.068538
      dxz     :     0.020200
      dyz     :     0.015948
      dx2y2   :     0.008171
      dxy     :     0.012383
  3 C s       :     3.209572  s :     3.209572
      pz      :     0.986164  p :     2.818151
      px      :     0.936159
      py      :     0.895828
      dz2     :     0.002766  d :     0.031913
      dxz     :     0.005353
      dyz     :     0.004303
      dx2y2   :     0.009438
      dxy     :     0.010052
  4 C s       :     3.168822  s :     3.168822
      pz      :     0.974449  p :     2.796592
      px      :     0.873399
      py      :     0.948744
      dz2     :     0.004894  d :     0.037796
      dxz     :     0.005774
      dyz     :     0.005879
      dx2y2   :     0.010863
      dxy     :     0.010387
  5 C s       :     3.231598  s :     3.231598
      pz      :     0.968682  p :     2.842368
      px      :     0.949643
      py      :     0.924043
      dz2     :     0.004473  d :     0.034000
      dxz     :     0.005063
      dyz     :     0.004932
      dx2y2   :     0.009502
      dxy     :     0.010030
  6 C s       :     2.964472  s :     2.964472
      pz      :     1.003948  p :     2.959278
      px      :     0.939626
      py      :     1.015704
      dz2     :     0.007652  d :     0.033630
      dxz     :     0.005777
      dyz     :     0.004927
      dx2y2   :     0.007958
      dxy     :     0.007316
  7 H s       :     0.742002  s :     0.742002
      pz      :     0.027821  p :     0.066661
      px      :     0.011866
      py      :     0.026974
  8 H s       :     0.938226  s :     0.938226
      pz      :     0.006784  p :     0.020660
      px      :     0.007646
      py      :     0.006229
  9 H s       :     0.935829  s :     0.935829
      pz      :     0.007464  p :     0.024005
      px      :     0.003120
      py      :     0.013422
 10 H s       :     0.947429  s :     0.947429
      pz      :     0.004753  p :     0.023373
      px      :     0.013840
      py      :     0.004780
 11 H s       :     0.941719  s :     0.941719
      pz      :     0.005850  p :     0.023799
      px      :     0.008607
      py      :     0.009342
 12 H s       :     0.919158  s :     0.919158
      pz      :     0.014081  p :     0.023188
      px      :     0.004855
      py      :     0.004252
 13 H s       :     0.930162  s :     0.930162
      pz      :     0.006625  p :     0.023242
      px      :     0.005833
      py      :     0.010784

SPIN
  0 O s       :     0.000159  s :     0.000159
      pz      :     0.000149  p :     0.006724
      px      :     0.005280
      py      :     0.001295
      dz2     :     0.000011  d :     0.000026
      dxz     :     0.000011
      dyz     :     0.000002
      dx2y2   :    -0.000009
      dxy     :     0.000011
  1 O s       :     0.001379  s :     0.001379
      pz      :     0.013396  p :     0.012653
      px      :    -0.000293
      py      :    -0.000450
      dz2     :     0.000046  d :     0.000140
      dxz     :     0.000026
      dyz     :     0.000015
      dx2y2   :     0.000007
      dxy     :     0.000046
  2 C s       :    -0.015969  s :    -0.015969
      pz      :    -0.009789  p :    -0.036528
      px      :    -0.013386
      py      :    -0.013353
      dz2     :    -0.000028  d :     0.004200
      dxz     :     0.003269
      dyz     :     0.000314
      dx2y2   :     0.000048
      dxy     :     0.000597
  3 C s       :     0.098131  s :     0.098131
      pz      :     0.461347  p :     0.608856
      px      :     0.025973
      py      :     0.121537
      dz2     :    -0.000956  d :    -0.002771
      dxz     :    -0.000462
      dyz     :    -0.001044
      dx2y2   :    -0.000084
      dxy     :    -0.000225
  4 C s       :    -0.057064  s :    -0.057064
      pz      :    -0.175632  p :    -0.277812
      px      :    -0.027827
      py      :    -0.074353
      dz2     :     0.003087  d :     0.008779
      dxz     :     0.001339
      dyz     :     0.002912
      dx2y2   :     0.001193
      dxy     :     0.000248
  5 C s       :     0.094914  s :     0.094914
      pz      :     0.459479  p :     0.615919
      px      :     0.025064
      py      :     0.131376
      dz2     :    -0.001204  d :    -0.002512
      dxz     :     0.000129
      dyz     :    -0.001194
      dx2y2   :    -0.000259
      dxy     :     0.000016
  6 C s       :    -0.020124  s :    -0.020124
      pz      :    -0.011675  p :    -0.047230
      px      :    -0.029222
      py      :    -0.006333
      dz2     :     0.000640  d :     0.003590
      dxz     :     0.002350
      dyz     :     0.000036
      dx2y2   :    -0.000054
      dxy     :     0.000618
  7 H s       :    -0.000314  s :    -0.000314
      pz      :     0.000035  p :     0.000128
      px      :     0.000094
      py      :    -0.000002
  8 H s       :     0.018071  s :     0.018071
      pz      :     0.000051  p :    -0.000021
      px      :    -0.000196
      py      :     0.000124
  9 H s       :    -0.037714  s :    -0.037714
      pz      :     0.002821  p :     0.003616
      px      :    -0.000086
      py      :     0.000881
 10 H s       :     0.012341  s :     0.012341
      pz      :    -0.000821  p :    -0.001113
      px      :    -0.000078
      py      :    -0.000213
 11 H s       :    -0.038835  s :    -0.038835
      pz      :     0.002918  p :     0.003779
      px      :     0.000085
      py      :     0.000776
 12 H s       :     0.025886  s :     0.025886
      pz      :    -0.000105  p :    -0.000156
      px      :    -0.000080
      py      :     0.000028
 13 H s       :     0.019030  s :     0.019030
      pz      :    -0.000039  p :    -0.000158
      px      :    -0.000115
      py      :    -0.000004


                     *******************************
                     * LOEWDIN POPULATION ANALYSIS *
                     *******************************

-------------------------------------------
LOEWDIN ATOMIC CHARGES AND SPIN POPULATIONS
-------------------------------------------
   0 O :   -0.062921    0.005340
   1 O :   -0.104797    0.021005
   2 C :    0.045990   -0.000455
   3 C :   -0.028875    0.550105
   4 C :   -0.041949   -0.175410
   5 C :   -0.015207    0.558870
   6 C :   -0.056077   -0.010060
   7 H :    0.076864    0.000204
   8 H :    0.019888    0.015832
   9 H :    0.028476   -0.001612
  10 H :    0.033704    0.000398
  11 H :    0.024479   -0.001336
  12 H :    0.041727    0.021710
  13 H :    0.038696    0.015406

----------------------------------------------------
LOEWDIN REDUCED ORBITAL CHARGES AND SPIN POPULATIONS
----------------------------------------------------
CHARGE
  0 O s       :     3.526930  s :     3.526930
      pz      :     1.620328  p :     4.498235
      px      :     1.351438
      py      :     1.526469
      dz2     :     0.004385  d :     0.037756
      dxz     :     0.006567
      dyz     :     0.009343
      dx2y2   :     0.009491
      dxy     :     0.007970
  1 O s       :     3.557184  s :     3.557184
      pz      :     1.546486  p :     4.504310
      px      :     1.231435
      py      :     1.726389
      dz2     :     0.008233  d :     0.043302
      dxz     :     0.011752
      dyz     :     0.005386
      dx2y2   :     0.008654
      dxy     :     0.009278
  2 C s       :     2.860581  s :     2.860581
      pz      :     0.908453  p :     2.935745
      px      :     0.996619
      py      :     1.030673
      dz2     :     0.024763  d :     0.157684
      dxz     :     0.048132
      dyz     :     0.037841
      dx2y2   :     0.015775
      dxy     :     0.031173
  3 C s       :     2.895301  s :     2.895301
      pz      :     0.987972  p :     3.053273
      px      :     1.035749
      py      :     1.029551
      dz2     :     0.005984  d :     0.080301
      dxz     :     0.012465
      dyz     :     0.008899
      dx2y2   :     0.023984
      dxy     :     0.028969
  4 C s       :     2.871117  s :     2.871117
      pz      :     0.978620  p :     3.072756
      px      :     1.050269
      py      :     1.043867
      dz2     :     0.011248  d :     0.098076
      dxz     :     0.012789
      dyz     :     0.014955
      dx2y2   :     0.030196
      dxy     :     0.028889
  5 C s       :     2.892882  s :     2.892882
      pz      :     0.973391  p :     3.039301
      px      :     1.029577
      py      :     1.036333
      dz2     :     0.008739  d :     0.083023
      dxz     :     0.010846
      dyz     :     0.011638
      dx2y2   :     0.026854
      dxy     :     0.024946
  6 C s       :     2.847061  s :     2.847061
      pz      :     1.056532  p :     3.122460
      px      :     1.026893
      py      :     1.039035
      dz2     :     0.020387  d :     0.086555
      dxz     :     0.013462
      dyz     :     0.012708
      dx2y2   :     0.022293
      dxy     :     0.017706
  7 H s       :     0.746325  s :     0.746325
      pz      :     0.075681  p :     0.176811
      px      :     0.032842
      py      :     0.068288
  8 H s       :     0.913422  s :     0.913422
      pz      :     0.022147  p :     0.066690
      px      :     0.023837
      py      :     0.020706
  9 H s       :     0.897871  s :     0.897871
      pz      :     0.023224  p :     0.073653
      px      :     0.011522
      py      :     0.038907
 10 H s       :     0.898459  s :     0.898459
      pz      :     0.014345  p :     0.067837
      px      :     0.038623
      py      :     0.014869
 11 H s       :     0.902285  s :     0.902285
      pz      :     0.018949  p :     0.073236
      px      :     0.027024
      py      :     0.027262
 12 H s       :     0.890663  s :     0.890663
      pz      :     0.039697  p :     0.067610
      px      :     0.014480
      py      :     0.013434
 13 H s       :     0.892930  s :     0.892930
      pz      :     0.017990  p :     0.068374
      px      :     0.017558
      py      :     0.032826

SPIN
  0 O s       :    -0.000047  s :    -0.000047
      pz      :     0.000171  p :     0.005304
      px      :     0.004107
      py      :     0.001026
      dz2     :     0.000041  d :     0.000084
      dxz     :    -0.000004
      dyz     :    -0.000002
      dx2y2   :    -0.000005
      dxy     :     0.000053
  1 O s       :     0.007311  s :     0.007311
      pz      :     0.012441  p :     0.013522
      px      :     0.001087
      py      :    -0.000007
      dz2     :    -0.000012  d :     0.000173
      dxz     :    -0.000007
      dyz     :     0.000005
      dx2y2   :     0.000038
      dxy     :     0.000150
  2 C s       :    -0.002094  s :    -0.002094
      pz      :    -0.001352  p :    -0.009312
      px      :    -0.003014
      py      :    -0.004946
      dz2     :     0.000097  d :     0.010950
      dxz     :     0.008101
      dyz     :     0.000696
      dx2y2   :     0.000218
      dxy     :     0.001838
  3 C s       :     0.020885  s :     0.020885
      pz      :     0.416988  p :     0.534683
      px      :     0.013553
      py      :     0.104142
      dz2     :    -0.001107  d :    -0.005464
      dxz     :    -0.001381
      dyz     :    -0.001280
      dx2y2   :    -0.000669
      dxy     :    -0.001027
  4 C s       :    -0.010695  s :    -0.010695
      pz      :    -0.135127  p :    -0.186313
      px      :    -0.008160
      py      :    -0.043027
      dz2     :     0.006970  d :     0.021598
      dxz     :     0.003453
      dyz     :     0.006710
      dx2y2   :     0.003196
      dxy     :     0.001270
  5 C s       :     0.021091  s :     0.021091
      pz      :     0.418322  p :     0.542994
      px      :     0.013662
      py      :     0.111010
      dz2     :    -0.001879  d :    -0.005215
      dxz     :     0.000032
      dyz     :    -0.001828
      dx2y2   :    -0.001034
      dxy     :    -0.000506
  6 C s       :    -0.003282  s :    -0.003282
      pz      :    -0.002657  p :    -0.016191
      px      :    -0.011842
      py      :    -0.001692
      dz2     :     0.001964  d :     0.009414
      dxz     :     0.005398
      dyz     :     0.000148
      dx2y2   :     0.000346
      dxy     :     0.001557
  7 H s       :    -0.000189  s :    -0.000189
      pz      :     0.000084  p :     0.000393
      px      :     0.000281
      py      :     0.000028
  8 H s       :     0.016181  s :     0.016181
      pz      :    -0.000092  p :    -0.000348
      px      :    -0.000226
      py      :    -0.000030
  9 H s       :    -0.017066  s :    -0.017066
      pz      :     0.010836  p :     0.015454
      px      :     0.000278
      py      :     0.004340
 10 H s       :     0.005438  s :     0.005438
      pz      :    -0.003241  p :    -0.005040
      px      :    -0.000718
      py      :    -0.001081
 11 H s       :    -0.017351  s :    -0.017351
      pz      :     0.011024  p :     0.016015
      px      :     0.001212
      py      :     0.003779
 12 H s       :     0.022385  s :     0.022385
      pz      :    -0.000450  p :    -0.000675
      px      :    -0.000202
      py      :    -0.000023
 13 H s       :     0.016068  s :     0.016068
      pz      :    -0.000132  p :    -0.000662
      px      :    -0.000277
      py      :    -0.000252


                      *****************************
                      * MAYER POPULATION ANALYSIS *
                      *****************************

  NA   - Mulliken gross atomic population
  ZA   - Total nuclear charge
  QA   - Mulliken gross atomic charge
  VA   - Mayer's total valence
  BVA  - Mayer's bonded valence
  FA   - Mayer's free valence

  ATOM       NA         ZA         QA         VA         BVA        FA
  0 O      8.1585     8.0000    -0.1585     1.9711     1.9711     0.0000
  1 O      8.2810     8.0000    -0.2810     1.9015     1.9011     0.0004
  2 C      5.8728     6.0000     0.1272     3.9629     3.9610     0.0019
  3 C      6.0596     6.0000    -0.0596     3.8723     3.5459     0.3264
  4 C      6.0032     6.0000    -0.0032     3.8722     3.8250     0.0472
  5 C      6.1080     6.0000    -0.1080     3.9105     3.5777     0.3327
  6 C      5.9574     6.0000     0.0426     3.8710     3.8691     0.0019
  7 H      0.8087     1.0000     0.1913     1.0023     1.0023     0.0000
  8 H      0.9589     1.0000     0.0411     0.9844     0.9841     0.0004
  9 H      0.9598     1.0000     0.0402     0.9937     0.9922     0.0015
 10 H      0.9708     1.0000     0.0292     0.9855     0.9853     0.0002
 11 H      0.9655     1.0000     0.0345     0.9898     0.9883     0.0015
 12 H      0.9423     1.0000     0.0577     0.9758     0.9751     0.0007
 13 H      0.9534     1.0000     0.0466     1.0057     1.0053     0.0004

  Mayer bond orders larger than 0.100000
B(  0-O ,  1-O ) :   0.9246 B(  0-O ,  7-H ) :   0.9719 B(  1-O ,  2-C ) :   0.9163 
B(  2-C ,  3-C ) :   1.0288 B(  2-C ,  6-C ) :   1.0325 B(  2-C ,  8-H ) :   0.9256 
B(  3-C ,  4-C ) :   1.3962 B(  3-C ,  5-C ) :   0.1268 B(  3-C ,  9-H ) :   0.9882 
B(  4-C ,  5-C ) :   1.4124 B(  4-C , 10-H ) :   0.9956 B(  5-C ,  6-C ) :   1.0303 
B(  5-C , 11-H ) :   0.9868 B(  6-C , 12-H ) :   0.9254 B(  6-C , 13-H ) :   0.9215 



------------------
HIRSHFELD ANALYSIS
------------------

Total integrated alpha density =     27.000001399
Total integrated beta density  =     25.999999151

  ATOM     CHARGE      SPIN    
   0 O   -0.165302    0.006279
   1 O   -0.125985    0.023933
   2 C    0.060594    0.028217
   3 C   -0.031952    0.433005
   4 C   -0.046236   -0.061969
   5 C   -0.023303    0.440082
   6 C   -0.050961    0.026708
   7 H    0.175594    0.000515
   8 H    0.027128    0.016712
   9 H    0.039243    0.027363
  10 H    0.042626   -0.006023
  11 H    0.035430    0.028258
  12 H    0.033063    0.021431
  13 H    0.030061    0.015492

  TOTAL  -0.000001    1.000002

-------
TIMINGS
-------

Total SCF time: 0 days 0 hours 0 min 45 sec 

Total time                  ....      45.521 sec
Sum of individual times     ....      45.372 sec  ( 99.7%)

Fock matrix formation       ....      43.521 sec  ( 95.6%)
  Split-RI-J                ....       2.668 sec  (  6.1% of F)
  Chain of spheres X        ....      29.657 sec  ( 68.1% of F)
  XC integration            ....      11.211 sec  ( 25.8% of F)
    Basis function eval.    ....       3.156 sec  ( 28.1% of XC)
    Density eval.           ....       2.996 sec  ( 26.7% of XC)
    XC-Functional eval.     ....       1.091 sec  (  9.7% of XC)
    XC-Potential eval.      ....       3.708 sec  ( 33.1% of XC)
Diagonalization             ....       0.069 sec  (  0.2%)
Density matrix formation    ....       0.006 sec  (  0.0%)
Population analysis         ....       0.376 sec  (  0.8%)
Initial guess               ....       0.218 sec  (  0.5%)
Orbital Transformation      ....       0.000 sec  (  0.0%)
Orbital Orthonormalization  ....       0.000 sec  (  0.0%)
DIIS solution               ....       0.017 sec  (  0.0%)
Grid generation             ....       1.165 sec  (  2.6%)

Maximum memory used throughout the entire SCF-calculation: 63.4 MB


-------------------------------------------------------------------------------
                          DFT DISPERSION CORRECTION                            
                                                                               
                              DFTD3 V3.1  Rev 1                                
                          USING Becke-Johnson damping                          
-------------------------------------------------------------------------------
The PBE0 functional is recognized
Active option DFTDOPT                   ...         4   

molecular C6(AA) [au] = 1774.702754 


            DFT-D V3
 parameters
 s6 scaling factor         :     1.0000 
 a1 scaling factor         :     0.4145 
 s8 scaling factor         :     1.2177 
 a2 scaling factor         :     4.8593 
 ad hoc parameters k1-k3   :    16.0000     1.3333    -4.0000 

 Edisp/kcal,au: -6.237339127381  -0.009939831540 
 E6   /kcal   :  -3.961481828 
 E8   /kcal   :  -2.275857299 
 % E8         :  36.487631231 

-------------------------   ----------------
Dispersion correction           -0.009939832
-------------------------   ----------------


-------------------------   --------------------
FINAL SINGLE POINT ENERGY      -344.395690140421
-------------------------   --------------------

------------------------------------------------------------------------------
                         ORCA SCF GRADIENT CALCULATION
------------------------------------------------------------------------------

 ... reading COSX grid (gridx3)
Gradient of the Kohn-Sham DFT energy:
Kohn-Sham wavefunction type      ... UKS
Hartree-Fock exchange scaling    ...    0.250
Number of operators              ...    2
Number of atoms                  ...   14
Basis set dimensions             ...  133
Integral neglect threshold       ... 2.5e-11
Integral primitive cutoff        ... 2.5e-12
SHARK Integral package           ... ON

Nuc. rep. gradient       (SHARK) ... done (  0.0 sec)
HCore & Overlap gradient (SHARK) ... done (  0.1 sec)
RI-J gradient            (SHARK) ... done (  0.6 sec)
COSX-gradient                    ... done (  6.8 sec)
Exchange-correlation gradient    ... done
Dispersion correction            ... done

------------------
CARTESIAN GRADIENT
------------------

   1   O   :    0.020723640    0.011615758    0.006337591
   2   O   :   -0.023665245   -0.013593145   -0.006347820
   3   C   :    0.003208356    0.002756751   -0.001485611
   4   C   :    0.001943067    0.001724696   -0.001538467
   5   C   :    0.000871447    0.000238947    0.000621734
   6   C   :    0.001161719   -0.000845192   -0.000246514
   7   C   :   -0.000830575   -0.000908266   -0.000437697
   8   H   :   -0.001456430   -0.001662642    0.002041697
   9   H   :   -0.000515551   -0.000012480    0.000444782
  10   H   :   -0.000165434   -0.000167106   -0.000053860
  11   H   :   -0.000618530   -0.000378414   -0.000050374
  12   H   :   -0.001100594    0.000694246    0.000334435
  13   H   :    0.000204373    0.000109387    0.000340339
  14   H   :    0.000318128    0.000471343    0.000156427

Difference to translation invariance:
           :    0.0000783712    0.0000438836    0.0001166621

Difference to rotation invariance:
           :   -0.0001157624   -0.0002922851    0.0000410873

Norm of the cartesian gradient     ...    0.0378992176
RMS gradient                       ...    0.0058479762
MAX gradient                       ...    0.0236652449

-------
TIMINGS
-------

Total SCF gradient time            ...       11.531 sec

One electron gradient       ....       0.098 sec  (  0.8%)
RI-J Coulomb gradient       ....       0.602 sec  (  5.2%)
COSX gradient               ....       6.751 sec  ( 58.5%)
XC gradient                 ....       3.775 sec  ( 32.7%)

Maximum memory used throughout the entire SCFGRAD-calculation: 50.2 MB

                            ***************************************
                            *     ORCA property calculations      *
                            ***************************************

                                    ---------------------
                                    Active property flags
                                    ---------------------
   (+) Dipole Moment


------------------------------------------------------------------------------
                       ORCA ELECTRIC PROPERTIES CALCULATION
------------------------------------------------------------------------------

Dipole Moment Calculation                       ... on
Quadrupole Moment Calculation                   ... off
Polarizability Calculation                      ... off
GBWName                                         ... 1_2_orca.gbw
Electron density                                ... 1_2_orca.scfp
The origin for moment calculation is the CENTER OF MASS  = (-0.448221,  0.121049  0.358992)

-------------
DIPOLE MOMENT
-------------
                                X             Y             Z
Electronic contribution:     -1.93252       0.67489       2.11486
Nuclear contribution   :      2.20204      -1.07126      -2.18509
                        -----------------------------------------
Total Dipole Moment    :      0.26953      -0.39637      -0.07023
                        -----------------------------------------
Magnitude (a.u.)       :      0.48444
Magnitude (Debye)      :      1.23135



--------------------
Rotational spectrum 
--------------------
 
Rotational constants in cm-1:     0.207026     0.067173     0.055617 
Rotational constants in MHz :  6206.497654  2013.790046  1667.341758 

 Dipole components along the rotational axes: 
x,y,z [a.u.] :    -0.229499    -0.364087     0.222383 
x,y,z [Debye]:    -0.583340    -0.925436     0.565253 

 

Timings for individual modules:

Sum of individual times         ...       57.276 sec (=   0.955 min)
GTO integral calculation        ...        0.167 sec (=   0.003 min)   0.3 %
SCF iterations                  ...       45.549 sec (=   0.759 min)  79.5 %
SCF Gradient evaluation         ...       11.561 sec (=   0.193 min)  20.2 %
                             ****ORCA TERMINATED NORMALLY****
TOTAL RUN TIME: 0 days 0 hours 0 minutes 57 seconds 433 msec
