
                                 *****************
                                 * O   R   C   A *
                                 *****************

                                            #,                                       
                                            ###                                      
                                            ####                                     
                                            #####                                    
                                            ######                                   
                                           ########,                                 
                                     ,,################,,,,,                         
                               ,,#################################,,                 
                          ,,##########################################,,             
                       ,#########################################, ''#####,          
                    ,#############################################,,   '####,        
                  ,##################################################,,,,####,       
                ,###########''''           ''''###############################       
              ,#####''   ,,,,##########,,,,          '''####'''          '####       
            ,##' ,,,,###########################,,,                        '##       
           ' ,,###''''                  '''############,,,                           
         ,,##''                                '''############,,,,        ,,,,,,###''
      ,#''                                            '''#######################'''  
     '                                                          ''''####''''         
             ,#######,   #######,   ,#######,      ##                                
            ,#'     '#,  ##    ##  ,#'     '#,    #''#        ######   ,####,        
            ##       ##  ##   ,#'  ##            #'  '#       #        #'  '#        
            ##       ##  #######   ##           ,######,      #####,   #    #        
            '#,     ,#'  ##    ##  '#,     ,#' ,#      #,         ##   #,  ,#        
             '#######'   ##     ##  '#######'  #'      '#     #####' # '####'        



                  #######################################################
                  #                        -***-                        #
                  #          Department of theory and spectroscopy      #
                  #    Directorship and core code : Frank Neese         #
                  #        Max Planck Institute fuer Kohlenforschung    #
                  #                Kaiser Wilhelm Platz 1               #
                  #                 D-45470 Muelheim/Ruhr               #
                  #                      Germany                        #
                  #                                                     #
                  #                  All rights reserved                #
                  #                        -***-                        #
                  #######################################################


                         Program Version 5.0.4 -  RELEASE  -


 With contributions from (in alphabetic order):
   Daniel Aravena         : Magnetic Suceptibility
   Michael Atanasov       : Ab Initio Ligand Field Theory (pilot matlab implementation)
   Alexander A. Auer      : GIAO ZORA, VPT2 properties, NMR spectrum
   Ute Becker             : Parallelization
   Giovanni Bistoni       : ED, misc. LED, open-shell LED, HFLD
   Martin Brehm           : Molecular dynamics
   Dmytro Bykov           : SCF Hessian
   Vijay G. Chilkuri      : MRCI spin determinant printing, contributions to CSF-ICE
   Dipayan Datta          : RHF DLPNO-CCSD density
   Achintya Kumar Dutta   : EOM-CC, STEOM-CC
   Dmitry Ganyushin       : Spin-Orbit,Spin-Spin,Magnetic field MRCI
   Miquel Garcia          : C-PCM and meta-GGA Hessian, CC/C-PCM, Gaussian charge scheme
   Yang Guo               : DLPNO-NEVPT2, F12-NEVPT2, CIM, IAO-localization
   Andreas Hansen         : Spin unrestricted coupled pair/coupled cluster methods
   Benjamin Helmich-Paris : MC-RPA, TRAH-SCF, COSX integrals
   Lee Huntington         : MR-EOM, pCC
   Robert Izsak           : Overlap fitted RIJCOSX, COSX-SCS-MP3, EOM
   Marcus Kettner         : VPT2
   Christian Kollmar      : KDIIS, OOCD, Brueckner-CCSD(T), CCSD density, CASPT2, CASPT2-K
   Simone Kossmann        : Meta GGA functionals, TD-DFT gradient, OOMP2, MP2 Hessian
   Martin Krupicka        : Initial AUTO-CI
   Lucas Lang             : DCDCAS
   Marvin Lechner         : AUTO-CI (C++ implementation), FIC-MRCC
   Dagmar Lenk            : GEPOL surface, SMD
   Dimitrios Liakos       : Extrapolation schemes; Compound Job, initial MDCI parallelization
   Dimitrios Manganas     : Further ROCIS development; embedding schemes
   Dimitrios Pantazis     : SARC Basis sets
   Anastasios Papadopoulos: AUTO-CI, single reference methods and gradients
   Taras Petrenko         : DFT Hessian,TD-DFT gradient, ASA, ECA, R-Raman, ABS, FL, XAS/XES, NRVS
   Peter Pinski           : DLPNO-MP2, DLPNO-MP2 Gradient
   Christoph Reimann      : Effective Core Potentials
   Marius Retegan         : Local ZFS, SOC
   Christoph Riplinger    : Optimizer, TS searches, QM/MM, DLPNO-CCSD(T), (RO)-DLPNO pert. Triples
   Tobias Risthaus        : Range-separated hybrids, TD-DFT gradient, RPA, STAB
   Michael Roemelt        : Original ROCIS implementation
   Masaaki Saitow         : Open-shell DLPNO-CCSD energy and density
   Barbara Sandhoefer     : DKH picture change effects
   Avijit Sen             : IP-ROCIS
   Kantharuban Sivalingam : CASSCF convergence, NEVPT2, FIC-MRCI
   Bernardo de Souza      : ESD, SOC TD-DFT
   Georgi Stoychev        : AutoAux, RI-MP2 NMR, DLPNO-MP2 response
   Willem Van den Heuvel  : Paramagnetic NMR
   Boris Wezisla          : Elementary symmetry handling
   Frank Wennmohs         : Technical directorship


 We gratefully acknowledge several colleagues who have allowed us to
 interface, adapt or use parts of their codes:
   Stefan Grimme, W. Hujo, H. Kruse, P. Pracht,  : VdW corrections, initial TS optimization,
                  C. Bannwarth, S. Ehlert          DFT functionals, gCP, sTDA/sTD-DF
   Ed Valeev, F. Pavosevic, A. Kumar             : LibInt (2-el integral package), F12 methods
   Garnet Chan, S. Sharma, J. Yang, R. Olivares  : DMRG
   Ulf Ekstrom                                   : XCFun DFT Library
   Mihaly Kallay                                 : mrcc  (arbitrary order and MRCC methods)
   Jiri Pittner, Ondrej Demel                    : Mk-CCSD
   Frank Weinhold                                : gennbo (NPA and NBO analysis)
   Christopher J. Cramer and Donald G. Truhlar   : smd solvation model
   Lars Goerigk                                  : TD-DFT with DH, B97 family of functionals
   V. Asgeirsson, H. Jonsson                     : NEB implementation
   FAccTs GmbH                                   : IRC, NEB, NEB-TS, DLPNO-Multilevel, CI-OPT
                                                   MM, QMMM, 2- and 3-layer-ONIOM, Crystal-QMMM,
                                                   LR-CPCM, SF, NACMEs, symmetry and pop. for TD-DFT,
                                                   nearIR, NL-DFT gradient (VV10), updates on ESD,
                                                   ML-optimized integration grids
   S Lehtola, MJT Oliveira, MAL Marques          : LibXC Library
   Liviu Ungur et al                             : ANISO software


 Your calculation uses the libint2 library for the computation of 2-el integrals
 For citations please refer to: http://libint.valeyev.net

 Your ORCA version has been built with support for libXC version: 5.1.0
 For citations please refer to: https://tddft.org/programs/libxc/

 This ORCA versions uses:
   CBLAS   interface :  Fast vector & matrix operations
   LAPACKE interface :  Fast linear algebra routines
   SCALAPACK package :  Parallel linear algebra routines
   Shared memory     :  Shared parallel matrices
   BLAS/LAPACK       :  OpenBLAS 0.3.15  USE64BITINT DYNAMIC_ARCH NO_AFFINITY Haswell SINGLE_THREADED
        Core in use  :  Haswell
   Copyright (c) 2011-2014, The OpenBLAS Project


Your calculation utilizes the atom-pairwise dispersion correction
with the Becke-Johnson damping scheme (D3BJ)
Cite in your paper:
S.Grimme, S.Ehrlich, L.Goerigk, J Comput Chem, (2011), 32, 1456–1465 
S.Grimme, J.Antony, S.Ehrlich and H.Krieg, J.Chem.Phys., 132, (2010), 154104 
   

================================================================================

----- Orbital basis set information -----
Your calculation utilizes the basis: def2-SVP
   F. Weigend and R. Ahlrichs, Phys. Chem. Chem. Phys. 7, 3297 (2005).

----- AuxJ basis set information -----
Your calculation utilizes the auxiliary basis: def2/J
   F. Weigend, Phys. Chem. Chem. Phys. 8, 1057 (2006).

================================================================================
                                        WARNINGS
                       Please study these warnings very carefully!
================================================================================


WARNING: Geometry Optimization
  ===> : Switching off AutoStart
         For restart on a previous wavefunction, please use MOREAD

INFO   : the flag for use of the SHARK integral package has been found!

================================================================================
                                       INPUT FILE
================================================================================
NAME = p0_C6H10_conf1_opt_orca.inp
|  1> ! LooseOpt PBE0 RIJCOSX D3BJ def2-SVP def2/J 
|  2> %geom MaxIter 10 end
|  3> %output 
|  4> xyzfile=True 
|  5> end 
|  6> %scf 
|  7> maxiter 250 
|  8> end
|  9> %output
| 10> Print[P_Hirshfeld] = 1
| 11> end
| 12> % maxcore
| 13> 4000
| 14> %pal nprocs 8
| 15> end
| 16> *xyz 0 1
| 17> C    0.24795576   1.48537643  -0.31436321 
| 18> C   -1.01042935   1.15711684  -0.07547828 
| 19> C   -1.45463519  -0.23520834   0.25287935 
| 20> C   -0.27222451  -1.11474712   0.65086609 
| 21> C    0.86364684  -0.93402207  -0.35005565 
| 22> C    1.37774054   0.50203513  -0.29070601 
| 23> H    0.51554243   2.51054356  -0.53443581 
| 24> H   -1.79095104   1.90506083  -0.12087865 
| 25> H   -2.19148958  -0.20273486   1.05991182 
| 26> H   -1.95756116  -0.66172289  -0.62174513 
| 27> H    0.07677055  -0.82356824   1.64360890 
| 28> H   -0.58102080  -2.16110949   0.69510673 
| 29> H    1.67612338  -1.63156936  -0.13705960 
| 30> H    0.49201396  -1.14493632  -1.35526204 
| 31> H    1.95765367   0.65177062   0.62674649 
| 32> H    2.05096449   0.69801528  -1.12913501 
| 33> *
| 34> 
| 35>                          ****END OF INPUT****
================================================================================

                       *****************************
                       * Geometry Optimization Run *
                       *****************************

Geometry optimization settings:
Update method            Update   .... BFGS
Choice of coordinates    CoordSys .... Z-matrix Internals
Initial Hessian          InHess   .... Almoef's Model

Convergence Tolerances:
Energy Change            TolE     ....  3.0000e-05 Eh
Max. Gradient            TolMAXG  ....  2.0000e-03 Eh/bohr
RMS Gradient             TolRMSG  ....  5.0000e-04 Eh/bohr
Max. Displacement        TolMAXD  ....  1.0000e-02 bohr
RMS Displacement         TolRMSD  ....  7.0000e-03 bohr
Strict Convergence                ....  False
------------------------------------------------------------------------------
                        ORCA OPTIMIZATION COORDINATE SETUP
------------------------------------------------------------------------------

The optimization will be done in new redundant internal coordinates
Making redundant internal coordinates   ...  (new redundants) done
Evaluating the initial hessian          ...  (Almloef) done
Evaluating the coordinates              ...  done
Calculating the B-matrix                .... done
Calculating the G-matrix                .... done
Diagonalizing the G-matrix              .... done
The first mode is                       ....   47
The number of degrees of freedom        ....   42

    -----------------------------------------------------------------
                    Redundant Internal Coordinates


    -----------------------------------------------------------------
         Definition                    Initial Value    Approx d2E/dq
    -----------------------------------------------------------------
      1. B(C   1,C   0)                  1.3223         0.801354   
      2. B(C   2,C   1)                  1.4979         0.420329   
      3. B(C   3,C   2)                  1.5265         0.378466   
      4. B(C   4,C   3)                  1.5247         0.380920   
      5. B(C   5,C   4)                  1.5265         0.378467   
      6. B(C   5,C   0)                  1.4980         0.420213   
      7. B(H   6,C   0)                  1.0821         0.370665   
      8. B(H   7,C   1)                  1.0820         0.370858   
      9. B(H   8,C   2)                  1.0933         0.355758   
     10. B(H   9,C   2)                  1.0954         0.353077   
     11. B(H  10,C   3)                  1.0918         0.357670   
     12. B(H  11,C   3)                  1.0919         0.357631   
     13. B(H  12,C   4)                  1.0918         0.357708   
     14. B(H  13,C   4)                  1.0923         0.357120   
     15. B(H  14,C   5)                  1.0956         0.352709   
     16. B(H  15,C   5)                  1.0930         0.356181   
     17. A(C   5,C   0,H   6)          116.0149         0.332256   
     18. A(C   1,C   0,C   5)          123.5013         0.423881   
     19. A(C   1,C   0,H   6)          120.4819         0.370526   
     20. A(C   0,C   1,C   2)          123.5450         0.423902   
     21. A(C   0,C   1,H   7)          120.4868         0.370559   
     22. A(C   2,C   1,H   7)          115.9648         0.332300   
     23. A(C   3,C   2,H   9)          109.8452         0.323963   
     24. A(C   1,C   2,H   9)          108.8481         0.329609   
     25. A(C   1,C   2,C   3)          111.2861         0.371603   
     26. A(C   3,C   2,H   8)          110.2870         0.324365   
     27. A(H   8,C   2,H   9)          106.9492         0.289391   
     28. A(C   1,C   2,H   8)          109.5161         0.330021   
     29. A(C   2,C   3,C   4)          109.7315         0.365376   
     30. A(H  10,C   3,H  11)          108.0067         0.290217   
     31. A(C   2,C   3,H  11)          110.1008         0.324645   
     32. A(C   4,C   3,H  10)          109.0960         0.324996   
     33. A(C   2,C   3,H  10)          109.3291         0.324651   
     34. A(C   4,C   3,H  11)          110.5412         0.324990   
     35. A(H  12,C   4,H  13)          108.0206         0.290157   
     36. A(C   5,C   4,H  13)          109.3923         0.324569   
     37. A(C   3,C   4,H  13)          109.1346         0.324914   
     38. A(C   5,C   4,H  12)          110.0503         0.324657   
     39. A(C   3,C   4,H  12)          110.5230         0.325002   
     40. A(C   3,C   4,C   5)          109.6874         0.365376   
     41. A(H  14,C   5,H  15)          106.9671         0.289397   
     42. A(C   4,C   5,H  15)          110.2618         0.324429   
     43. A(C   0,C   5,H  15)          109.5565         0.330071   
     44. A(C   4,C   5,H  14)          109.8395         0.323908   
     45. A(C   0,C   5,H  14)          108.8266         0.329537   
     46. A(C   0,C   5,C   4)          111.2813         0.371586   
     47. D(C   2,C   1,C   0,C   5)      0.2771         0.046421   
     48. D(H   7,C   1,C   0,C   5)   -179.0261         0.046421   
     49. D(C   2,C   1,C   0,H   6)   -179.2006         0.046421   
     50. D(H   7,C   1,C   0,H   6)      1.4962         0.046421   
     51. D(H   9,C   2,C   1,H   7)     73.8272         0.013064   
     52. D(H   9,C   2,C   1,C   0)   -105.5049         0.013064   
     53. D(C   3,C   2,C   1,H   7)   -164.9763         0.013064   
     54. D(C   3,C   2,C   1,C   0)     15.6916         0.013064   
     55. D(H   8,C   2,C   1,C   0)    137.8918         0.013064   
     56. D(H   8,C   2,C   1,H   7)    -42.7761         0.013064   
     57. D(H  10,C   3,C   2,C   1)     72.5598         0.011421   
     58. D(C   4,C   3,C   2,H   8)   -168.8058         0.011421   
     59. D(C   4,C   3,C   2,C   1)    -47.0526         0.011421   
     60. D(H  10,C   3,C   2,H   8)    -49.1934         0.011421   
     61. D(C   4,C   3,C   2,H   9)     73.5591         0.011421   
     62. D(H  11,C   3,C   2,H   9)    -48.3252         0.011421   
     63. D(H  11,C   3,C   2,H   8)     69.3098         0.011421   
     64. D(H  11,C   3,C   2,C   1)   -168.9370         0.011421   
     65. D(H  10,C   3,C   2,H   9)   -166.8285         0.011421   
     66. D(H  13,C   4,C   3,H  11)     66.0590         0.011562   
     67. D(H  13,C   4,C   3,C   2)    -55.5618         0.011562   
     68. D(H  12,C   4,C   3,H  11)    -52.5952         0.011562   
     69. D(H  12,C   4,C   3,H  10)     66.0291         0.011562   
     70. D(H  12,C   4,C   3,C   2)   -174.2160         0.011562   
     71. D(C   5,C   4,C   3,H  11)   -174.1119         0.011562   
     72. D(H  13,C   4,C   3,H  10)   -175.3167         0.011562   
     73. D(C   5,C   4,C   3,C   2)     64.2672         0.011562   
     74. D(C   5,C   4,C   3,H  10)    -55.4877         0.011562   
     75. D(H  14,C   5,C   0,C   1)   -105.2989         0.013057   
     76. D(C   4,C   5,C   0,H   6)   -164.6276         0.013057   
     77. D(C   4,C   5,C   0,C   1)     15.8733         0.013057   
     78. D(H  15,C   5,C   4,H  12)     69.2040         0.011421   
     79. D(H  15,C   5,C   4,C   3)   -168.9959         0.011421   
     80. D(H  14,C   5,C   4,H  13)   -166.9628         0.011421   
     81. D(H  14,C   5,C   4,H  12)    -48.4345         0.011421   
     82. D(H  14,C   5,C   4,C   3)     73.3657         0.011421   
     83. D(C   0,C   5,C   4,H  13)     72.4593         0.011421   
     84. D(C   0,C   5,C   4,H  12)   -169.0123         0.011421   
     85. D(C   0,C   5,C   4,C   3)    -47.2121         0.011421   
     86. D(H  15,C   5,C   0,H   6)    -42.4348         0.013057   
     87. D(H  15,C   5,C   0,C   1)    138.0661         0.013057   
     88. D(H  15,C   5,C   4,H  13)    -49.3244         0.011421   
     89. D(H  14,C   5,C   0,H   6)     74.2003         0.013057   
    -----------------------------------------------------------------

Number of atoms                         .... 16
Number of degrees of freedom            .... 89

         *************************************************************
         *                GEOMETRY OPTIMIZATION CYCLE   1            *
         *************************************************************
---------------------------------
CARTESIAN COORDINATES (ANGSTROEM)
---------------------------------
  C      0.247956    1.485376   -0.314363
  C     -1.010429    1.157117   -0.075478
  C     -1.454635   -0.235208    0.252879
  C     -0.272225   -1.114747    0.650866
  C      0.863647   -0.934022   -0.350056
  C      1.377741    0.502035   -0.290706
  H      0.515542    2.510544   -0.534436
  H     -1.790951    1.905061   -0.120879
  H     -2.191490   -0.202735    1.059912
  H     -1.957561   -0.661723   -0.621745
  H      0.076771   -0.823568    1.643609
  H     -0.581021   -2.161109    0.695107
  H      1.676123   -1.631569   -0.137060
  H      0.492014   -1.144936   -1.355262
  H      1.957654    0.651771    0.626746
  H      2.050964    0.698015   -1.129135

----------------------------
CARTESIAN COORDINATES (A.U.)
----------------------------
  NO LB      ZA    FRAG     MASS         X           Y           Z
   0 C     6.0000    0    12.011    0.468568    2.806955   -0.594060
   1 C     6.0000    0    12.011   -1.909435    2.186634   -0.142633
   2 C     6.0000    0    12.011   -2.748862   -0.444479    0.477873
   3 C     6.0000    0    12.011   -0.514430   -2.106567    1.229959
   4 C     6.0000    0    12.011    1.632056   -1.765046   -0.661509
   5 C     6.0000    0    12.011    2.603552    0.948709   -0.549355
   6 H     1.0000    0     1.008    0.974234    4.744240   -1.009937
   7 H     1.0000    0     1.008   -3.384407    3.600043   -0.228428
   8 H     1.0000    0     1.008   -4.141315   -0.383113    2.002943
   9 H     1.0000    0     1.008   -3.699254   -1.250475   -1.174928
  10 H     1.0000    0     1.008    0.145075   -1.556318    3.105971
  11 H     1.0000    0     1.008   -1.097970   -4.083905    1.313561
  12 H     1.0000    0     1.008    3.167414   -3.083219   -0.259005
  13 H     1.0000    0     1.008    0.929772   -2.163616   -2.561074
  14 H     1.0000    0     1.008    3.699429    1.231668    1.184379
  15 H     1.0000    0     1.008    3.875761    1.319058   -2.133756

--------------------------------
INTERNAL COORDINATES (ANGSTROEM)
--------------------------------
 C      0   0   0     0.000000000000     0.00000000     0.00000000
 C      1   0   0     1.322253172913     0.00000000     0.00000000
 C      2   1   0     1.497900853972   123.54500989     0.00000000
 C      3   2   1     1.526458950289   111.28612402    15.69160201
 C      4   3   2     1.524699838346   109.73152336   312.94742667
 C      1   2   3     1.497976443245   123.50131583     0.27714175
 H      1   2   3     1.082128559675   120.48186939   180.79941750
 H      2   1   3     1.081986836488   120.48682470   180.69680224
 H      3   2   1     1.093302486323   109.51614343   137.89178788
 H      3   2   1     1.095361663414   108.84813702   254.49505576
 H      4   3   2     1.091842927746   109.32906608    72.55982104
 H      4   3   2     1.091872974433   110.10080811   191.06304020
 H      5   4   3     1.091813934309   110.52300312   185.78396515
 H      5   4   3     1.092261738251   109.13455542   304.43816708
 H      6   1   2     1.095645492424   108.82660369   254.70111701
 H      6   1   2     1.092978450880   109.55646273   138.06606077

---------------------------
INTERNAL COORDINATES (A.U.)
---------------------------
 C      0   0   0     0.000000000000     0.00000000     0.00000000
 C      1   0   0     2.498696376513     0.00000000     0.00000000
 C      2   1   0     2.830622389775   123.54500989     0.00000000
 C      3   2   1     2.884589370719   111.28612402    15.69160201
 C      4   3   2     2.881265130908   109.73152336   312.94742667
 C      1   2   3     2.830765232799   123.50131583     0.27714175
 H      1   2   3     2.044926619481   120.48186939   180.79941750
 H      2   1   3     2.044658801471   120.48682470   180.69680224
 H      3   2   1     2.066042280686   109.51614343   137.89178788
 H      3   2   1     2.069933561449   108.84813702   254.49505576
 H      4   3   2     2.063284114699   109.32906608    72.55982104
 H      4   3   2     2.063340894709   110.10080811   191.06304020
 H      5   4   3     2.063229325044   110.52300312   185.78396515
 H      5   4   3     2.064075551855   109.13455542   304.43816708
 H      6   1   2     2.070469920546   108.82660369   254.70111701
 H      6   1   2     2.065429942441   109.55646273   138.06606077

---------------------
BASIS SET INFORMATION
---------------------
There are 2 groups of distinct atoms

 Group   1 Type C   : 7s4p1d contracted to 3s2p1d pattern {511/31/1}
 Group   2 Type H   : 4s1p contracted to 2s1p pattern {31/1}

Atom   0C    basis set group =>   1
Atom   1C    basis set group =>   1
Atom   2C    basis set group =>   1
Atom   3C    basis set group =>   1
Atom   4C    basis set group =>   1
Atom   5C    basis set group =>   1
Atom   6H    basis set group =>   2
Atom   7H    basis set group =>   2
Atom   8H    basis set group =>   2
Atom   9H    basis set group =>   2
Atom  10H    basis set group =>   2
Atom  11H    basis set group =>   2
Atom  12H    basis set group =>   2
Atom  13H    basis set group =>   2
Atom  14H    basis set group =>   2
Atom  15H    basis set group =>   2
---------------------------------
AUXILIARY/J BASIS SET INFORMATION
---------------------------------
There are 2 groups of distinct atoms

 Group   1 Type C   : 12s5p4d2f1g contracted to 6s4p3d1f1g pattern {711111/2111/211/2/1}
 Group   2 Type H   : 5s2p1d contracted to 3s1p1d pattern {311/2/1}

Atom   0C    basis set group =>   1
Atom   1C    basis set group =>   1
Atom   2C    basis set group =>   1
Atom   3C    basis set group =>   1
Atom   4C    basis set group =>   1
Atom   5C    basis set group =>   1
Atom   6H    basis set group =>   2
Atom   7H    basis set group =>   2
Atom   8H    basis set group =>   2
Atom   9H    basis set group =>   2
Atom  10H    basis set group =>   2
Atom  11H    basis set group =>   2
Atom  12H    basis set group =>   2
Atom  13H    basis set group =>   2
Atom  14H    basis set group =>   2
Atom  15H    basis set group =>   2


           ************************************************************
           *        Program running with 8 parallel MPI-processes     *
           *              working on a common directory               *
           ************************************************************
------------------------------------------------------------------------------
                           ORCA GTO INTEGRAL CALCULATION
                           -- RI-GTO INTEGRALS CHOSEN --
------------------------------------------------------------------------------
------------------------------------------------------------------------------
                   ___                                                        
                  /   \      - P O W E R E D   B Y -                         
                 /     \                                                     
                 |  |  |   _    _      __       _____    __    __             
                 |  |  |  | |  | |    /  \     |  _  \  |  |  /  |          
                  \  \/   | |  | |   /    \    | | | |  |  | /  /          
                 / \  \   | |__| |  /  /\  \   | |_| |  |  |/  /          
                |  |  |   |  __  | /  /__\  \  |    /   |      \           
                |  |  |   | |  | | |   __   |  |    \   |  |\   \          
                \     /   | |  | | |  |  |  |  | |\  \  |  | \   \       
                 \___/    |_|  |_| |__|  |__|  |_| \__\ |__|  \__/        
                                                                              
                      - O R C A' S   B I G   F R I E N D -                    
                                      &                                       
                       - I N T E G R A L  F E E D E R -                       
                                                                              
 v1 FN, 2020, v2 2021                                                         
------------------------------------------------------------------------------


Reading SHARK input file p0_C6H10_conf1_opt_orca.SHARKINP.tmp ... ok
----------------------
SHARK INTEGRAL PACKAGE
----------------------

Number of atoms                             ...     16
Number of basis functions                   ...    134
Number of shells                            ...     66
Maximum angular momentum                    ...      2
Integral batch strategy                     ... SHARK/LIBINT Hybrid
RI-J (if used) integral strategy            ... SPLIT-RIJ (Revised 2003 algorithm where possible)
Printlevel                                  ...      1
Contraction scheme used                     ... SEGMENTED contraction
Coulomb Range Separation                    ... NOT USED
Exchange Range Separation                   ... NOT USED
Finite Nucleus Model                        ... NOT USED
Auxiliary Coulomb fitting basis             ... AVAILABLE
   # of basis functions in Aux-J            ...    404
   # of shells in Aux-J                     ...    140
   Maximum angular momentum in Aux-J        ...      4
Auxiliary J/K fitting basis                 ... NOT available
Auxiliary Correlation fitting basis         ... NOT available
Auxiliary 'external' fitting basis          ... NOT available
Integral threshold                          ...     2.500000e-11
Primitive cut-off                           ...     2.500000e-12
Primitive pair pre-selection threshold      ...     2.500000e-12

Calculating pre-screening integrals         ... done (  0.0 sec) Dimension = 66
Organizing shell pair data                  ... done (  0.0 sec)
Shell pair information
Total number of shell pairs                 ...      2211
Shell pairs after pre-screening             ...      2185
Total number of primitive shell pairs       ...      7611
Primitive shell pairs kept                  ...      5968
          la=0 lb=0:    732 shell pairs
          la=1 lb=0:    822 shell pairs
          la=1 lb=1:    250 shell pairs
          la=2 lb=0:    228 shell pairs
          la=2 lb=1:    132 shell pairs
          la=2 lb=2:     21 shell pairs

Calculating one electron integrals          ... done (  0.0 sec)
Calculating RI/J V-Matrix + Cholesky decomp.... done (  0.0 sec)
Calculating Nuclear repulsion               ... done (  0.0 sec) ENN=    238.454941033294 Eh

SHARK setup successfully completed in   0.2 seconds

Maximum memory used throughout the entire GTOINT-calculation: 10.9 MB


           ************************************************************
           *        Program running with 8 parallel MPI-processes     *
           *              working on a common directory               *
           ************************************************************
-------------------------------------------------------------------------------
                                 ORCA SCF
-------------------------------------------------------------------------------

------------
SCF SETTINGS
------------
Hamiltonian:
 Density Functional     Method          .... DFT(GTOs)
 Exchange Functional    Exchange        .... PBE
   PBE kappa parameter   XKappa         ....  0.804000
   PBE mue parameter    XMuePBE         ....  0.219520
 Correlation Functional Correlation     .... PBE
   PBE beta parameter  CBetaPBE         ....  0.066725
 LDA part of GGA corr.  LDAOpt          .... PW91-LDA
 Gradients option       PostSCFGGA      .... off
 Hybrid DFT is turned on
   Fraction HF Exchange ScalHFX         ....  0.250000
   Scaling of DF-GGA-X  ScalDFX         ....  0.750000
   Scaling of DF-GGA-C  ScalDFC         ....  1.000000
   Scaling of DF-LDA-C  ScalLDAC        ....  1.000000
   Perturbative correction              ....  0.000000
   Density functional embedding theory  .... OFF
   NL short-range parameter             ....  6.900000
 RI-approximation to the Coulomb term is turned on
   Number of AuxJ basis functions       .... 404
   RIJ-COSX (HFX calculated with COS-X)).... on


General Settings:
 Integral files         IntName         .... p0_C6H10_conf1_opt_orca
 Hartree-Fock type      HFTyp           .... RHF
 Total Charge           Charge          ....    0
 Multiplicity           Mult            ....    1
 Number of Electrons    NEL             ....   46
 Basis Dimension        Dim             ....  134
 Nuclear Repulsion      ENuc            ....    238.4549410333 Eh

Convergence Acceleration:
 DIIS                   CNVDIIS         .... on
   Start iteration      DIISMaxIt       ....    12
   Startup error        DIISStart       ....  0.200000
   # of expansion vecs  DIISMaxEq       ....     5
   Bias factor          DIISBfac        ....   1.050
   Max. coefficient     DIISMaxC        ....  10.000
 Trust-Rad. Augm. Hess. CNVTRAH         .... auto
   Auto Start mean grad. ratio tolernc. ....  1.125000
   Auto Start start iteration           ....    20
   Auto Start num. interpolation iter.  ....    10
   Max. Number of Micro iterations      ....    16
   Max. Number of Macro iterations      .... Maxiter - #DIIS iter
   Number of Davidson start vectors     ....     2
   Converg. threshold I  (grad. norm)   ....   1.000e-05
   Converg. threshold II (energy diff.) ....   1.000e-08
   Grad. Scal. Fac. for Micro threshold ....   0.100
   Minimum threshold for Micro iter.    ....   0.010
   NR start threshold (gradient norm)   ....   0.001
   Initial trust radius                 ....   0.400
   Minimum AH scaling param. (alpha)    ....   1.000
   Maximum AH scaling param. (alpha)    .... 1000.000
   Orbital update algorithm             .... Taylor
   White noise on init. David. guess    .... on
   Maximum white noise                  ....   0.010
   Quad. conv. algorithm                .... NR
 SOSCF                  CNVSOSCF        .... on
   Start iteration      SOSCFMaxIt      ....   150
   Startup grad/error   SOSCFStart      ....  0.003300
 Level Shifting         CNVShift        .... on
   Level shift para.    LevelShift      ....    0.2500
   Turn off err/grad.   ShiftErr        ....    0.0010
 Zerner damping         CNVZerner       .... off
 Static damping         CNVDamp         .... on
   Fraction old density DampFac         ....    0.7000
   Max. Damping (<1)    DampMax         ....    0.9800
   Min. Damping (>=0)   DampMin         ....    0.0000
   Turn off err/grad.   DampErr         ....    0.1000
 Fernandez-Rico         CNVRico         .... off

SCF Procedure:
 Maximum # iterations   MaxIter         ....   250
 SCF integral mode      SCFMode         .... Direct
   Integral package                     .... SHARK and LIBINT hybrid scheme
 Reset frequency        DirectResetFreq ....    20
 Integral Threshold     Thresh          ....  2.500e-11 Eh
 Primitive CutOff       TCut            ....  2.500e-12 Eh

Convergence Tolerance:
 Convergence Check Mode ConvCheckMode   .... Total+1el-Energy
 Convergence forced     ConvForced      .... 0
 Energy Change          TolE            ....  1.000e-08 Eh
 1-El. energy change                    ....  1.000e-05 Eh
 Orbital Gradient       TolG            ....  1.000e-05
 Orbital Rotation angle TolX            ....  1.000e-05
 DIIS Error             TolErr          ....  5.000e-07


Diagonalization of the overlap matrix:
Smallest eigenvalue                        ... 1.008e-03
Time for diagonalization                   ...    0.004 sec
Threshold for overlap eigenvalues          ... 1.000e-08
Number of eigenvalues below threshold      ... 0
Time for construction of square roots      ...    0.002 sec
Total time needed                          ...    0.006 sec

Time for model grid setup =    0.051 sec

------------------------------
INITIAL GUESS: MODEL POTENTIAL
------------------------------
Loading Hartree-Fock densities                     ... done
Calculating cut-offs                               ... done
Initializing the effective Hamiltonian             ... done
Setting up the integral package (SHARK)            ... done
Starting the Coulomb interaction                   ... done (   0.0 sec)
Reading the grid                                   ... done
Mapping shells                                     ... done
Starting the XC term evaluation                    ... done (   0.0 sec)
  promolecular density results
     # of electrons  =     45.991413316
     EX              =    -33.652314011
     EC              =     -1.503632685
     EX+EC           =    -35.155946696
Transforming the Hamiltonian                       ... done (   0.0 sec)
Diagonalizing the Hamiltonian                      ... done (   0.0 sec)
Back transforming the eigenvectors                 ... done (   0.0 sec)
Now organizing SCF variables                       ... done
                      ------------------
                      INITIAL GUESS DONE (   0.1 sec)
                      ------------------
-------------------
DFT GRID GENERATION
-------------------

General Integration Accuracy     IntAcc      ... 4.388
Radial Grid Type                 RadialGrid  ... OptM3 with GC (2021)
Angular Grid (max. ang.)         AngularGrid ... 4 (Lebedev-302)
Angular grid pruning method      GridPruning ... 4 (adaptive)
Weight generation scheme         WeightScheme... Becke
Basis function cutoff            BFCut       ... 1.0000e-11
Integration weight cutoff        WCut        ... 1.0000e-14
Angular grids for H and He will be reduced by one unit
Partially contracted basis set               ... off
Rotationally invariant grid construction     ... off

Total number of grid points                  ...    68044
Total number of batches                      ...     1071
Average number of points per batch           ...       63
Average number of grid points per atom       ...     4253
Time for grid setup =    0.314 sec

--------------------
COSX GRID GENERATION
--------------------

GRIDX 1
-------
General Integration Accuracy     IntAcc      ... 3.816
Radial Grid Type                 RadialGrid  ... OptM3 with GC (2021)
Angular Grid (max. ang.)         AngularGrid ... 1 (Lebedev-50)
Angular grid pruning method      GridPruning ... 4 (adaptive)
Weight generation scheme         WeightScheme... Becke
Basis function cutoff            BFCut       ... 1.0000e-11
Integration weight cutoff        WCut        ... 1.0000e-14
Angular grids for H and He will be reduced by one unit
Partially contracted basis set               ... on
Rotationally invariant grid construction     ... off

Total number of grid points                  ...     8722
Total number of batches                      ...      146
Average number of points per batch           ...       59
Average number of grid points per atom       ...      545
UseSFitting                                  ... on

GRIDX 2
-------
General Integration Accuracy     IntAcc      ... 4.020
Radial Grid Type                 RadialGrid  ... OptM3 with GC (2021)
Angular Grid (max. ang.)         AngularGrid ... 2 (Lebedev-110)
Angular grid pruning method      GridPruning ... 4 (adaptive)
Weight generation scheme         WeightScheme... Becke
Basis function cutoff            BFCut       ... 1.0000e-11
Integration weight cutoff        WCut        ... 1.0000e-14
Angular grids for H and He will be reduced by one unit
Partially contracted basis set               ... on
Rotationally invariant grid construction     ... off

Total number of grid points                  ...    18279
Total number of batches                      ...      293
Average number of points per batch           ...       62
Average number of grid points per atom       ...     1142
UseSFitting                                  ... on

GRIDX 3
-------
General Integration Accuracy     IntAcc      ... 4.338
Radial Grid Type                 RadialGrid  ... OptM3 with GC (2021)
Angular Grid (max. ang.)         AngularGrid ... 3 (Lebedev-194)
Angular grid pruning method      GridPruning ... 4 (adaptive)
Weight generation scheme         WeightScheme... Becke
Basis function cutoff            BFCut       ... 1.0000e-11
Integration weight cutoff        WCut        ... 1.0000e-14
Angular grids for H and He will be reduced by one unit
Partially contracted basis set               ... on
Rotationally invariant grid construction     ... off

Total number of grid points                  ...    40052
Total number of batches                      ...      635
Average number of points per batch           ...       63
Average number of grid points per atom       ...     2503
UseSFitting                                  ... on

Time for X-Grid setup             =    0.236 sec

--------------
SCF ITERATIONS
--------------
ITER       Energy         Delta-E        Max-DP      RMS-DP      [F,P]     Damp
               ***  Starting incremental Fock matrix formation  ***
  0   -234.0229710693   0.000000000000 0.06084031  0.00237457  0.1420193 0.7000
  1   -234.0996206333  -0.076649564088 0.03813944  0.00169903  0.0778334 0.7000
                               ***Turning on DIIS***
  2   -234.1326427962  -0.033022162878 0.05825794  0.00302932  0.0331174 0.0000
  3   -234.1800761342  -0.047433337979 0.02529521  0.00119404  0.0395219 0.0000
  4   -234.1926686022  -0.012592468042 0.00492344  0.00027952  0.0066638 0.0000
                      *** Initiating the SOSCF procedure ***
                           *** Shutting down DIIS ***
                      *** Re-Reading the Fockian *** 
                      *** Removing any level shift *** 
ITER      Energy       Delta-E        Grad      Rot      Max-DP    RMS-DP
  5   -234.19309836  -0.0004297610  0.000594  0.000594  0.001670  0.000099
               *** Restarting incremental Fock matrix formation ***
  6   -234.19320046  -0.0001020936  0.000238  0.000510  0.001251  0.000066
  7   -234.19320158  -0.0000011202  0.000284  0.000180  0.000451  0.000016
  8   -234.19320295  -0.0000013688  0.000025  0.000034  0.000093  0.000006
  9   -234.19320297  -0.0000000248  0.000014  0.000010  0.000032  0.000002
 10   -234.19320298  -0.0000000080  0.000004  0.000007  0.000011  0.000001
 11   -234.19320298   0.0000000012  0.000003  0.000006  0.000006  0.000000
                  ***Gradient check signals convergence***
              ***Rediagonalizing the Fockian in SOSCF/NRSCF***

               *****************************************************
               *                     SUCCESS                       *
               *           SCF CONVERGED AFTER  12 CYCLES          *
               *****************************************************

Old exchange energy                            =     -8.665371285 Eh
New exchange energy                            =     -8.665392805 Eh
Exchange energy change after final integration =     -0.000021521 Eh
Total energy after final integration           =   -234.193224502 Eh
Final COS-X integration done in                =     0.779 sec

----------------
TOTAL SCF ENERGY
----------------

Total Energy       :         -234.19322450 Eh           -6372.72162 eV

Components:
Nuclear Repulsion  :          238.45494103 Eh            6488.68882 eV
Electronic Energy  :         -472.64816554 Eh          -12861.41045 eV
One Electron Energy:         -786.36730266 Eh          -21398.14217 eV
Two Electron Energy:          313.71913712 Eh            8536.73172 eV
Max COSX asymmetry :            0.00000222 Eh               0.00006 eV

Virial components:
Potential Energy   :         -465.83894318 Eh          -12676.12209 eV
Kinetic Energy     :          231.64571868 Eh            6303.40046 eV
Virial Ratio       :            2.01099742


DFT components:
N(Alpha)           :       23.000035684905 electrons
N(Beta)            :       23.000035684905 electrons
N(Total)           :       46.000071369810 electrons
E(X)               :      -25.844750717987 Eh       
E(C)               :       -1.514462680144 Eh       
E(XC)              :      -27.359213398131 Eh       
DFET-embed. en.    :        0.000000000000 Eh       

---------------
SCF CONVERGENCE
---------------

  Last Energy change         ...   -3.6501e-09  Tolerance :   1.0000e-08
  Last MAX-Density change    ...    2.6645e-15  Tolerance :   1.0000e-07
  Last RMS-Density change    ...    4.4152e-17  Tolerance :   5.0000e-09
  Last Orbital Gradient      ...    1.1988e-06  Tolerance :   1.0000e-05
  Last Orbital Rotation      ...    3.4984e-06  Tolerance :   1.0000e-05

             **** THE GBW FILE WAS UPDATED (p0_C6H10_conf1_opt_orca.gbw) ****
             **** DENSITY p0_C6H10_conf1_opt_orca.scfp WAS UPDATED ****
             **** ENERGY FILE WAS UPDATED (p0_C6H10_conf1_opt_orca.en.tmp) ****
             **** THE GBW FILE WAS UPDATED (p0_C6H10_conf1_opt_orca.gbw) ****
             **** DENSITY p0_C6H10_conf1_opt_orca.scfp WAS UPDATED ****
----------------
ORBITAL ENERGIES
----------------

  NO   OCC          E(Eh)            E(eV) 
   0   2.0000     -10.225752      -278.2569 
   1   2.0000     -10.225713      -278.2558 
   2   2.0000     -10.222703      -278.1739 
   3   2.0000     -10.222558      -278.1699 
   4   2.0000     -10.220840      -278.1232 
   5   2.0000     -10.219951      -278.0990 
   6   2.0000      -0.853056       -23.2128 
   7   2.0000      -0.755627       -20.5617 
   8   2.0000      -0.753859       -20.5135 
   9   2.0000      -0.628974       -17.1152 
  10   2.0000      -0.608990       -16.5715 
  11   2.0000      -0.522891       -14.2286 
  12   2.0000      -0.508199       -13.8288 
  13   2.0000      -0.455129       -12.3847 
  14   2.0000      -0.439609       -11.9624 
  15   2.0000      -0.421558       -11.4712 
  16   2.0000      -0.399615       -10.8741 
  17   2.0000      -0.391669       -10.6578 
  18   2.0000      -0.389182       -10.5902 
  19   2.0000      -0.338749        -9.2178 
  20   2.0000      -0.324563        -8.8318 
  21   2.0000      -0.311095        -8.4653 
  22   2.0000      -0.252241        -6.8638 
  23   0.0000       0.031875         0.8674 
  24   0.0000       0.069595         1.8938 
  25   0.0000       0.101750         2.7688 
  26   0.0000       0.109048         2.9674 
  27   0.0000       0.113520         3.0890 
  28   0.0000       0.140707         3.8288 
  29   0.0000       0.144258         3.9255 
  30   0.0000       0.155806         4.2397 
  31   0.0000       0.164363         4.4725 
  32   0.0000       0.171702         4.6722 
  33   0.0000       0.184467         5.0196 
  34   0.0000       0.226686         6.1684 
  35   0.0000       0.242726         6.6049 
  36   0.0000       0.257146         6.9973 
  37   0.0000       0.264229         7.1900 
  38   0.0000       0.323567         8.8047 
  39   0.0000       0.408970        11.1287 
  40   0.0000       0.419091        11.4040 
  41   0.0000       0.445525        12.1234 
  42   0.0000       0.452090        12.3020 
  43   0.0000       0.459268        12.4973 
  44   0.0000       0.476797        12.9743 
  45   0.0000       0.510934        13.9032 
  46   0.0000       0.554251        15.0819 
  47   0.0000       0.575116        15.6497 
  48   0.0000       0.592634        16.1264 
  49   0.0000       0.628521        17.1029 
  50   0.0000       0.642947        17.4955 
  51   0.0000       0.646544        17.5934 
  52   0.0000       0.659570        17.9478 
  53   0.0000       0.663540        18.0558 
  54   0.0000       0.683044        18.5866 
  55   0.0000       0.686086        18.6694 
  56   0.0000       0.698496        19.0070 
  57   0.0000       0.705659        19.2020 
  58   0.0000       0.710236        19.3265 
  59   0.0000       0.714021        19.4295 
  60   0.0000       0.718756        19.5583 
  61   0.0000       0.730760        19.8850 
  62   0.0000       0.735277        20.0079 
  63   0.0000       0.740396        20.1472 
  64   0.0000       0.743456        20.2305 
  65   0.0000       0.768549        20.9133 
  66   0.0000       0.827734        22.5238 
  67   0.0000       0.839667        22.8485 
  68   0.0000       0.893456        24.3122 
  69   0.0000       1.021170        27.7875 
  70   0.0000       1.043343        28.3908 
  71   0.0000       1.077009        29.3069 
  72   0.0000       1.156743        31.4766 
  73   0.0000       1.182032        32.1647 
  74   0.0000       1.246426        33.9170 
  75   0.0000       1.273520        34.6542 
  76   0.0000       1.304229        35.4899 
  77   0.0000       1.320376        35.9293 
  78   0.0000       1.341068        36.4923 
  79   0.0000       1.502549        40.8864 
  80   0.0000       1.571066        42.7509 
  81   0.0000       1.577591        42.9284 
  82   0.0000       1.605061        43.6759 
  83   0.0000       1.660965        45.1972 
  84   0.0000       1.667943        45.3870 
  85   0.0000       1.727113        46.9971 
  86   0.0000       1.756824        47.8056 
  87   0.0000       1.768734        48.1297 
  88   0.0000       1.785255        48.5793 
  89   0.0000       1.813623        49.3512 
  90   0.0000       1.819367        49.5075 
  91   0.0000       1.831430        49.8357 
  92   0.0000       1.848121        50.2899 
  93   0.0000       1.858113        50.5618 
  94   0.0000       1.864716        50.7415 
  95   0.0000       1.883500        51.2526 
  96   0.0000       1.895518        51.5797 
  97   0.0000       1.908400        51.9302 
  98   0.0000       1.908549        51.9342 
  99   0.0000       1.936417        52.6926 
 100   0.0000       1.947726        53.0003 
 101   0.0000       1.978571        53.8397 
 102   0.0000       1.988179        54.1011 
 103   0.0000       2.044236        55.6265 
 104   0.0000       2.076070        56.4927 
 105   0.0000       2.090909        56.8965 
 106   0.0000       2.158372        58.7323 
 107   0.0000       2.178329        59.2753 
 108   0.0000       2.223208        60.4966 
 109   0.0000       2.257331        61.4251 
 110   0.0000       2.271092        61.7996 
 111   0.0000       2.314281        62.9748 
 112   0.0000       2.410088        65.5818 
 113   0.0000       2.422164        65.9104 
 114   0.0000       2.446057        66.5606 
 115   0.0000       2.493905        67.8626 
 116   0.0000       2.505117        68.1677 
 117   0.0000       2.611819        71.0712 
 118   0.0000       2.632084        71.6227 
 119   0.0000       2.633558        71.6627 
 120   0.0000       2.651500        72.1510 
 121   0.0000       2.676604        72.8341 
 122   0.0000       2.749125        74.8075 
 123   0.0000       2.808193        76.4148 
 124   0.0000       2.871058        78.1255 
 125   0.0000       2.936552        79.9076 
 126   0.0000       2.967115        80.7393 
 127   0.0000       2.969416        80.8019 
 128   0.0000       3.025470        82.3272 
 129   0.0000       3.051614        83.0386 
 130   0.0000       3.061772        83.3151 
 131   0.0000       3.079731        83.8037 
 132   0.0000       3.132111        85.2291 
 133   0.0000       3.365502        91.5800 

                    ********************************
                    * MULLIKEN POPULATION ANALYSIS *
                    ********************************

-----------------------
MULLIKEN ATOMIC CHARGES
-----------------------
   0 C :   -0.103702
   1 C :   -0.102829
   2 C :    0.010821
   3 C :   -0.067316
   4 C :   -0.067978
   5 C :    0.011494
   6 H :    0.016042
   7 H :    0.016044
   8 H :    0.036520
   9 H :    0.042791
  10 H :    0.035378
  11 H :    0.028972
  12 H :    0.029009
  13 H :    0.035698
  14 H :    0.042855
  15 H :    0.036201
Sum of atomic charges:   -0.0000000

--------------------------------
MULLIKEN REDUCED ORBITAL CHARGES
--------------------------------
  0 C s       :     3.149571  s :     3.149571
      pz      :     1.002349  p :     2.917729
      px      :     0.993920
      py      :     0.921460
      dz2     :     0.002713  d :     0.036403
      dxz     :     0.008679
      dyz     :     0.001967
      dx2y2   :     0.012057
      dxy     :     0.010988
  1 C s       :     3.148788  s :     3.148788
      pz      :     1.008883  p :     2.917627
      px      :     0.959284
      py      :     0.949460
      dz2     :     0.003007  d :     0.036414
      dxz     :     0.006914
      dyz     :     0.003705
      dx2y2   :     0.009304
      dxy     :     0.013483
  2 C s       :     2.977778  s :     2.977778
      pz      :     1.005633  p :     2.974495
      px      :     1.006850
      py      :     0.962012
      dz2     :     0.005058  d :     0.036906
      dxz     :     0.010012
      dyz     :     0.006132
      dx2y2   :     0.008097
      dxy     :     0.007607
  3 C s       :     3.057073  s :     3.057073
      pz      :     1.004677  p :     2.973629
      px      :     0.962767
      py      :     1.006186
      dz2     :     0.009023  d :     0.036614
      dxz     :     0.008716
      dyz     :     0.003272
      dx2y2   :     0.008123
      dxy     :     0.007480
  4 C s       :     3.057778  s :     3.057778
      pz      :     1.001482  p :     2.973590
      px      :     0.979734
      py      :     0.992373
      dz2     :     0.009100  d :     0.036611
      dxz     :     0.007203
      dyz     :     0.004471
      dx2y2   :     0.006018
      dxy     :     0.009819
  5 C s       :     2.977677  s :     2.977677
      pz      :     1.010107  p :     2.973932
      px      :     1.005900
      py      :     0.957924
      dz2     :     0.005681  d :     0.036898
      dxz     :     0.010067
      dyz     :     0.004687
      dx2y2   :     0.007351
      dxy     :     0.009111
  6 H s       :     0.960275  s :     0.960275
      pz      :     0.005357  p :     0.023683
      px      :     0.004360
      py      :     0.013966
  7 H s       :     0.960269  s :     0.960269
      pz      :     0.004863  p :     0.023687
      px      :     0.009797
      py      :     0.009027
  8 H s       :     0.940269  s :     0.940269
      pz      :     0.010338  p :     0.023211
      px      :     0.008617
      py      :     0.004256
  9 H s       :     0.933772  s :     0.933772
      pz      :     0.011157  p :     0.023438
      px      :     0.006457
      py      :     0.005823
 10 H s       :     0.941733  s :     0.941733
      pz      :     0.012478  p :     0.022889
      px      :     0.005101
      py      :     0.005310
 11 H s       :     0.948148  s :     0.948148
      pz      :     0.004540  p :     0.022879
      px      :     0.004868
      py      :     0.013471
 12 H s       :     0.948106  s :     0.948106
      pz      :     0.004970  p :     0.022884
      px      :     0.009730
      py      :     0.008185
 13 H s       :     0.941441  s :     0.941441
      pz      :     0.012809  p :     0.022861
      px      :     0.005536
      py      :     0.004516
 14 H s       :     0.933718  s :     0.933718
      pz      :     0.011829  p :     0.023427
      px      :     0.007321
      py      :     0.004277
 15 H s       :     0.940578  s :     0.940578
      pz      :     0.010813  p :     0.023221
      px      :     0.008096
      py      :     0.004312


                     *******************************
                     * LOEWDIN POPULATION ANALYSIS *
                     *******************************

----------------------
LOEWDIN ATOMIC CHARGES
----------------------
   0 C :   -0.049935
   1 C :   -0.049812
   2 C :   -0.047663
   3 C :   -0.042384
   4 C :   -0.042380
   5 C :   -0.047608
   6 H :    0.024550
   7 H :    0.024513
   8 H :    0.031695
   9 H :    0.033623
  10 H :    0.025445
  11 H :    0.024590
  12 H :    0.024594
  13 H :    0.025529
  14 H :    0.033682
  15 H :    0.031560

-------------------------------
LOEWDIN REDUCED ORBITAL CHARGES
-------------------------------
  0 C s       :     2.864241  s :     2.864241
      pz      :     0.985527  p :     3.093211
      px      :     1.076301
      py      :     1.031383
      dz2     :     0.006137  d :     0.092483
      dxz     :     0.017305
      dyz     :     0.004068
      dx2y2   :     0.032629
      dxy     :     0.032344
  1 C s       :     2.864150  s :     2.864150
      pz      :     0.984776  p :     3.093151
      px      :     1.080440
      py      :     1.027935
      dz2     :     0.006725  d :     0.092510
      dxz     :     0.014021
      dyz     :     0.007480
      dx2y2   :     0.027453
      dxy     :     0.036833
  2 C s       :     2.830082  s :     2.830082
      pz      :     1.058191  p :     3.125575
      px      :     1.034685
      py      :     1.032698
      dz2     :     0.012584  d :     0.092006
      dxz     :     0.025284
      dyz     :     0.014622
      dx2y2   :     0.019499
      dxy     :     0.020016
  3 C s       :     2.834706  s :     2.834706
      pz      :     1.048365  p :     3.117663
      px      :     1.024775
      py      :     1.044523
      dz2     :     0.021708  d :     0.090015
      dxz     :     0.022399
      dyz     :     0.007299
      dx2y2   :     0.019609
      dxy     :     0.019001
  4 C s       :     2.834813  s :     2.834813
      pz      :     1.051886  p :     3.117569
      px      :     1.038620
      py      :     1.027062
      dz2     :     0.022436  d :     0.089999
      dxz     :     0.019296
      dyz     :     0.008930
      dx2y2   :     0.015485
      dxy     :     0.023853
  5 C s       :     2.830098  s :     2.830098
      pz      :     1.061045  p :     3.125508
      px      :     1.037232
      py      :     1.027232
      dz2     :     0.015289  d :     0.092002
      dxz     :     0.025768
      dyz     :     0.009118
      dx2y2   :     0.017712
      dxy     :     0.024115
  6 H s       :     0.904903  s :     0.904903
      pz      :     0.016610  p :     0.070546
      px      :     0.013777
      py      :     0.040159
  7 H s       :     0.904921  s :     0.904921
      pz      :     0.015493  p :     0.070566
      px      :     0.026930
      py      :     0.028143
  8 H s       :     0.900415  s :     0.900415
      pz      :     0.028325  p :     0.067890
      px      :     0.025900
      py      :     0.013665
  9 H s       :     0.898284  s :     0.898284
      pz      :     0.031023  p :     0.068093
      px      :     0.019162
      py      :     0.017908
 10 H s       :     0.906511  s :     0.906511
      pz      :     0.036353  p :     0.068044
      px      :     0.016559
      py      :     0.015131
 11 H s       :     0.907587  s :     0.907587
      pz      :     0.013363  p :     0.067823
      px      :     0.016113
      py      :     0.038347
 12 H s       :     0.907565  s :     0.907565
      pz      :     0.014384  p :     0.067840
      px      :     0.028725
      py      :     0.024731
 13 H s       :     0.906507  s :     0.906507
      pz      :     0.036972  p :     0.067964
      px      :     0.016545
      py      :     0.014447
 14 H s       :     0.898274  s :     0.898274
      pz      :     0.032630  p :     0.068044
      px      :     0.021242
      py      :     0.014173
 15 H s       :     0.900499  s :     0.900499
      pz      :     0.029528  p :     0.067940
      px      :     0.023720
      py      :     0.014693


                      *****************************
                      * MAYER POPULATION ANALYSIS *
                      *****************************

  NA   - Mulliken gross atomic population
  ZA   - Total nuclear charge
  QA   - Mulliken gross atomic charge
  VA   - Mayer's total valence
  BVA  - Mayer's bonded valence
  FA   - Mayer's free valence

  ATOM       NA         ZA         QA         VA         BVA        FA
  0 C      6.1037     6.0000    -0.1037     4.0053     4.0053    -0.0000
  1 C      6.1028     6.0000    -0.1028     4.0054     4.0054    -0.0000
  2 C      5.9892     6.0000     0.0108     3.9689     3.9689    -0.0000
  3 C      6.0673     6.0000    -0.0673     4.0613     4.0613    -0.0000
  4 C      6.0680     6.0000    -0.0680     4.0617     4.0617    -0.0000
  5 C      5.9885     6.0000     0.0115     3.9684     3.9684    -0.0000
  6 H      0.9840     1.0000     0.0160     0.9831     0.9831    -0.0000
  7 H      0.9840     1.0000     0.0160     0.9831     0.9831     0.0000
  8 H      0.9635     1.0000     0.0365     0.9757     0.9757    -0.0000
  9 H      0.9572     1.0000     0.0428     0.9770     0.9770    -0.0000
 10 H      0.9646     1.0000     0.0354     0.9741     0.9741     0.0000
 11 H      0.9710     1.0000     0.0290     0.9732     0.9732    -0.0000
 12 H      0.9710     1.0000     0.0290     0.9732     0.9732     0.0000
 13 H      0.9643     1.0000     0.0357     0.9740     0.9740    -0.0000
 14 H      0.9571     1.0000     0.0429     0.9771     0.9771     0.0000
 15 H      0.9638     1.0000     0.0362     0.9758     0.9758    -0.0000

  Mayer bond orders larger than 0.100000
B(  0-C ,  1-C ) :   1.9486 B(  0-C ,  5-C ) :   1.0268 B(  0-C ,  6-H ) :   0.9669 
B(  1-C ,  2-C ) :   1.0272 B(  1-C ,  7-H ) :   0.9668 B(  2-C ,  3-C ) :   1.0793 
B(  2-C ,  8-H ) :   0.9377 B(  2-C ,  9-H ) :   0.9270 B(  3-C ,  4-C ) :   1.0655 
B(  3-C , 10-H ) :   0.9519 B(  3-C , 11-H ) :   0.9443 B(  4-C ,  5-C ) :   1.0793 
B(  4-C , 12-H ) :   0.9443 B(  4-C , 13-H ) :   0.9520 B(  5-C , 14-H ) :   0.9270 
B(  5-C , 15-H ) :   0.9378 


------------------
HIRSHFELD ANALYSIS
------------------

Total integrated alpha density =     23.000035685
Total integrated beta density  =     23.000035685

  ATOM     CHARGE      SPIN    
   0 C   -0.045299    0.000000
   1 C   -0.045247    0.000000
   2 C   -0.041311    0.000000
   3 C   -0.039601    0.000000
   4 C   -0.039565    0.000000
   5 C   -0.041321    0.000000
   6 H    0.027660    0.000000
   7 H    0.027636    0.000000
   8 H    0.027387    0.000000
   9 H    0.026204    0.000000
  10 H    0.021874    0.000000
  11 H    0.023008    0.000000
  12 H    0.023013    0.000000
  13 H    0.021915    0.000000
  14 H    0.026220    0.000000
  15 H    0.027357    0.000000

  TOTAL  -0.000071    0.000000

-------
TIMINGS
-------

Total SCF time: 0 days 0 hours 0 min 7 sec 

Total time                  ....       7.566 sec
Sum of individual times     ....       7.412 sec  ( 98.0%)

Fock matrix formation       ....       6.518 sec  ( 86.2%)
  Split-RI-J                ....       0.660 sec  ( 10.1% of F)
  Chain of spheres X        ....       4.393 sec  ( 67.4% of F)
  XC integration            ....       1.405 sec  ( 21.5% of F)
    Basis function eval.    ....       0.535 sec  ( 38.1% of XC)
    Density eval.           ....       0.301 sec  ( 21.4% of XC)
    XC-Functional eval.     ....       0.111 sec  (  7.9% of XC)
    XC-Potential eval.      ....       0.284 sec  ( 20.3% of XC)
Diagonalization             ....       0.034 sec  (  0.4%)
Density matrix formation    ....       0.003 sec  (  0.0%)
Population analysis         ....       0.145 sec  (  1.9%)
Initial guess               ....       0.055 sec  (  0.7%)
Orbital Transformation      ....       0.000 sec  (  0.0%)
Orbital Orthonormalization  ....       0.000 sec  (  0.0%)
DIIS solution               ....       0.025 sec  (  0.3%)
SOSCF solution              ....       0.031 sec  (  0.4%)
Grid generation             ....       0.600 sec  (  7.9%)

Maximum memory used throughout the entire SCF-calculation: 50.4 MB


-------------------------------------------------------------------------------
                          DFT DISPERSION CORRECTION                            
                                                                               
                              DFTD3 V3.1  Rev 1                                
                          USING Becke-Johnson damping                          
-------------------------------------------------------------------------------
The PBE0 functional is recognized
Active option DFTDOPT                   ...         4   

molecular C6(AA) [au] = 1996.617724 


            DFT-D V3
 parameters
 s6 scaling factor         :     1.0000 
 a1 scaling factor         :     0.4145 
 s8 scaling factor         :     1.2177 
 a2 scaling factor         :     4.8593 
 ad hoc parameters k1-k3   :    16.0000     1.3333    -4.0000 

 Edisp/kcal,au: -7.516153372964  -0.011977751543 
 E6   /kcal   :  -4.816876889 
 E8   /kcal   :  -2.699276484 
 % E8         :  35.913004294 

-------------------------   ----------------
Dispersion correction           -0.011977752
-------------------------   ----------------


-------------------------   --------------------
FINAL SINGLE POINT ENERGY      -234.205202253354
-------------------------   --------------------



           ************************************************************
           *        Program running with 8 parallel MPI-processes     *
           *              working on a common directory               *
           ************************************************************
------------------------------------------------------------------------------
                         ORCA SCF GRADIENT CALCULATION
------------------------------------------------------------------------------

 ... reading COSX grid (gridx3)
Gradient of the Kohn-Sham DFT energy:
Kohn-Sham wavefunction type      ... RKS
Hartree-Fock exchange scaling    ...    0.250
Number of operators              ...    1
Number of atoms                  ...   16
Basis set dimensions             ...  134
Integral neglect threshold       ... 2.5e-11
Integral primitive cutoff        ... 2.5e-12
SHARK Integral package           ... ON

Nuc. rep. gradient       (SHARK) ... done (  0.0 sec)
HCore & Overlap gradient (SHARK) ... done (  0.0 sec)
RI-J gradient            (SHARK) ... done (  0.2 sec)
COSX-gradient                    ... done (  1.0 sec)
Exchange-correlation gradient    ... done
Dispersion correction            ... done

------------------
CARTESIAN GRADIENT
------------------

   1   C   :   -0.015837412    0.000952218    0.000850022
   2   C   :    0.012980716    0.008880590   -0.002122641
   3   C   :   -0.010766463   -0.001101955   -0.003914590
   4   C   :    0.003112357   -0.002558376    0.012112868
   5   C   :   -0.000288100   -0.007012628   -0.010682441
   6   C   :    0.009510286    0.005859035    0.003098186
   7   H   :   -0.000020168   -0.009937469    0.001479157
   8   H   :    0.005374787   -0.008564945    0.001162559
   9   H   :    0.005634802    0.000483311   -0.003462135
  10   H   :    0.005089151    0.003236555    0.004273744
  11   H   :   -0.002104324   -0.000646028   -0.007557983
  12   H   :    0.001596400    0.006094673   -0.002024826
  13   H   :   -0.004701362    0.004737115    0.000471424
  14   H   :    0.001456136    0.002439297    0.007020236
  15   H   :   -0.005623529   -0.001130808   -0.004425978
  16   H   :   -0.005409986   -0.001798576    0.003761341

Difference to translation invariance:
           :    0.0000032925   -0.0000679912    0.0000389416

Difference to rotation invariance:
           :   -0.0002496178    0.0002391180   -0.0001503181

Norm of the cartesian gradient     ...    0.0413237545
RMS gradient                       ...    0.0059645702
MAX gradient                       ...    0.0158374125

-------
TIMINGS
-------

Total SCF gradient time            ...        2.092 sec

One electron gradient       ....       0.025 sec  (  1.2%)
RI-J Coulomb gradient       ....       0.157 sec  (  7.5%)
COSX gradient               ....       0.973 sec  ( 46.5%)
XC gradient                 ....       0.699 sec  ( 33.4%)

Maximum memory used throughout the entire SCFGRAD-calculation: 38.9 MB
------------------------------------------------------------------------------
                         ORCA GEOMETRY RELAXATION STEP
------------------------------------------------------------------------------

Reading the OPT-File                    .... done
Getting information on internals        .... done
Copying old internal coords+grads       .... done
Making the new internal coordinates     .... (new redundants).... done
Validating the new internal coordinates .... (new redundants).... done
Calculating the B-matrix                .... done
Calculating the G,G- and P matrices     .... done
Transforming gradient to internals      .... done
Projecting the internal gradient        .... done
Number of atoms                         ....  16
Number of internal coordinates          ....  89
Current Energy                          ....  -234.205202253 Eh
Current gradient norm                   ....     0.041323754 Eh/bohr
Maximum allowed component of the step   ....  0.300
Current trust radius                    ....  0.300
Evaluating the initial hessian          ....  (Almloef) done
Projecting the Hessian                  .... done
Forming the augmented Hessian           .... done
Diagonalizing the augmented Hessian     .... done
Last element of RFO vector              ....  0.992755540
Lowest eigenvalues of augmented Hessian:
 -0.002579752  0.013289815  0.016180274  0.022614613  0.023186538
Length of the computed step             ....  0.121028518
The final length of the internal step   ....  0.121028518
Converting the step to cartesian space:
 Initial RMS(Int)=    0.0128289973
Transforming coordinates:
 Iter   0:  RMS(Cart)=    0.0192280609 RMS(Int)=    0.0128118149
 Iter   1:  RMS(Cart)=    0.0000983890 RMS(Int)=    0.0000964598
 Iter   2:  RMS(Cart)=    0.0000010742 RMS(Int)=    0.0000008947
 Iter   3:  RMS(Cart)=    0.0000000144 RMS(Int)=    0.0000000155
done
Storing new coordinates                 .... done

                                .--------------------.
          ----------------------|Geometry convergence|-------------------------
          Item                value                   Tolerance       Converged
          ---------------------------------------------------------------------
          RMS gradient        0.0033603830            0.0005000000      NO
          MAX gradient        0.0177761886            0.0020000000      NO
          RMS step            0.0128289973            0.0070000000      NO
          MAX step            0.0263588020            0.0100000000      NO
          ........................................................
          Max(Bonds)      0.0139      Max(Angles)    0.71
          Max(Dihed)        1.43      Max(Improp)    0.00
          ---------------------------------------------------------------------

The optimization has not yet converged - more geometry cycles are needed


    ---------------------------------------------------------------------------
                         Redundant Internal Coordinates
                            (Angstroem and degrees)

        Definition                    Value    dE/dq     Step     New-Value
    ----------------------------------------------------------------------------
     1. B(C   1,C   0)                1.3223 -0.017776  0.0120    1.3343   
     2. B(C   2,C   1)                1.4979 -0.003862  0.0052    1.5031   
     3. B(C   3,C   2)                1.5265 -0.001541  0.0017    1.5282   
     4. B(C   4,C   3)                1.5247 -0.002371  0.0028    1.5275   
     5. B(C   5,C   4)                1.5265 -0.001468  0.0016    1.5281   
     6. B(C   5,C   0)                1.4980 -0.003783  0.0051    1.5030   
     7. B(H   6,C   0)                1.0821 -0.009716  0.0138    1.0959   
     8. B(H   7,C   1)                1.0820 -0.009843  0.0139    1.0959   
     9. B(H   8,C   2)                1.0933 -0.006344  0.0094    1.1027   
    10. B(H   9,C   2)                1.0954 -0.007003  0.0104    1.1058   
    11. B(H  10,C   3)                1.0918 -0.007723  0.0113    1.1032   
    12. B(H  11,C   3)                1.0919 -0.006376  0.0094    1.1012   
    13. B(H  12,C   4)                1.0918 -0.006436  0.0095    1.1013   
    14. B(H  13,C   4)                1.0923 -0.007427  0.0109    1.1032   
    15. B(H  14,C   5)                1.0956 -0.006833  0.0102    1.1058   
    16. B(H  15,C   5)                1.0930 -0.006542  0.0096    1.1026   
    17. A(C   5,C   0,H   6)          116.01 -0.003631    0.50    116.51   
    18. A(C   1,C   0,C   5)          123.50  0.002111   -0.15    123.35   
    19. A(C   1,C   0,H   6)          120.48  0.001520   -0.35    120.14   
    20. A(C   0,C   1,C   2)          123.55  0.002161   -0.16    123.39   
    21. A(C   0,C   1,H   7)          120.49  0.001546   -0.35    120.14   
    22. A(C   2,C   1,H   7)          115.96 -0.003707    0.51    116.47   
    23. A(C   3,C   2,H   9)          109.85  0.000231   -0.03    109.82   
    24. A(C   1,C   2,H   9)          108.85  0.000175    0.06    108.91   
    25. A(C   1,C   2,C   3)          111.29 -0.001028    0.38    111.67   
    26. A(C   3,C   2,H   8)          110.29 -0.000370    0.13    110.42   
    27. A(H   8,C   2,H   9)          106.95  0.001169   -0.70    106.25   
    28. A(C   1,C   2,H   8)          109.52 -0.000082    0.11    109.62   
    29. A(C   2,C   3,C   4)          109.73 -0.002062    0.55    110.28   
    30. A(H  10,C   3,H  11)          108.01  0.000571   -0.58    107.43   
    31. A(C   2,C   3,H  11)          110.10  0.000550    0.15    110.25   
    32. A(C   4,C   3,H  10)          109.10  0.000844   -0.18    108.91   
    33. A(C   2,C   3,H  10)          109.33  0.000407   -0.21    109.12   
    34. A(C   4,C   3,H  11)          110.54 -0.000250    0.25    110.79   
    35. A(H  12,C   4,H  13)          108.02  0.000546   -0.58    107.44   
    36. A(C   5,C   4,H  13)          109.39  0.000518   -0.25    109.14   
    37. A(C   3,C   4,H  13)          109.13  0.000867   -0.20    108.93   
    38. A(C   5,C   4,H  12)          110.05  0.000506    0.18    110.23   
    39. A(C   3,C   4,H  12)          110.52 -0.000189    0.25    110.77   
    40. A(C   3,C   4,C   5)          109.69 -0.002187    0.58    110.27   
    41. A(H  14,C   5,H  15)          106.97  0.001195   -0.71    106.26   
    42. A(C   4,C   5,H  15)          110.26 -0.000521    0.17    110.43   
    43. A(C   0,C   5,H  15)          109.56  0.000020    0.09    109.64   
    44. A(C   4,C   5,H  14)          109.84  0.000286   -0.04    109.80   
    45. A(C   0,C   5,H  14)          108.83  0.000110    0.07    108.90   
    46. A(C   0,C   5,C   4)          111.28 -0.000995    0.38    111.66   
    47. D(C   2,C   1,C   0,C   5)      0.28  0.000057    0.51      0.79   
    48. D(H   7,C   1,C   0,C   5)   -179.03  0.000103    0.16   -178.86   
    49. D(C   2,C   1,C   0,H   6)   -179.20  0.000058    0.27   -178.93   
    50. D(H   7,C   1,C   0,H   6)      1.50  0.000104   -0.08      1.42   
    51. D(H   9,C   2,C   1,H   7)     73.83  0.000744   -0.61     73.22   
    52. D(H   9,C   2,C   1,C   0)   -105.50  0.000756   -0.94   -106.44   
    53. D(C   3,C   2,C   1,H   7)   -164.98  0.000495   -0.36   -165.34   
    54. D(C   3,C   2,C   1,C   0)     15.69  0.000507   -0.69     15.00   
    55. D(H   8,C   2,C   1,C   0)    137.89 -0.000699   -0.19    137.70   
    56. D(H   8,C   2,C   1,H   7)    -42.78 -0.000711    0.14    -42.64   
    57. D(H  10,C   3,C   2,C   1)     72.56 -0.001008    1.06     73.62   
    58. D(C   4,C   3,C   2,H   8)   -168.81  0.000016    0.60   -168.21   
    59. D(C   4,C   3,C   2,C   1)    -47.05 -0.001037    1.08    -45.97   
    60. D(H  10,C   3,C   2,H   8)    -49.19  0.000045    0.58    -48.62   
    61. D(C   4,C   3,C   2,H   9)     73.56 -0.001331    1.39     74.95   
    62. D(H  11,C   3,C   2,H   9)    -48.33 -0.000029    0.63    -47.70   
    63. D(H  11,C   3,C   2,H   8)     69.31  0.001319   -0.17     69.14   
    64. D(H  11,C   3,C   2,C   1)   -168.94  0.000266    0.32   -168.62   
    65. D(H  10,C   3,C   2,H   9)   -166.83 -0.001302    1.37   -165.46   
    66. D(H  13,C   4,C   3,H  11)     66.06 -0.000224   -0.56     65.50   
    67. D(H  13,C   4,C   3,C   2)    -55.56  0.000613   -1.27    -56.84   
    68. D(H  12,C   4,C   3,H  11)    -52.60 -0.001314    0.13    -52.46   
    69. D(H  12,C   4,C   3,H  10)     66.03 -0.000244   -0.54     65.49   
    70. D(H  12,C   4,C   3,C   2)   -174.22 -0.000477   -0.58   -174.80   
    71. D(C   5,C   4,C   3,H  11)   -174.11 -0.000384   -0.64   -174.75   
    72. D(H  13,C   4,C   3,H  10)   -175.32  0.000846   -1.23   -176.55   
    73. D(C   5,C   4,C   3,C   2)     64.27  0.000453   -1.35     62.91   
    74. D(C   5,C   4,C   3,H  10)    -55.49  0.000685   -1.31    -56.80   
    75. D(H  14,C   5,C   0,C   1)   -105.30  0.000778   -0.98   -106.28   
    76. D(C   4,C   5,C   0,H   6)   -164.63  0.000598   -0.51   -165.14   
    77. D(C   4,C   5,C   0,C   1)     15.87  0.000576   -0.74     15.13   
    78. D(H  15,C   5,C   4,H  12)     69.20  0.001311   -0.17     69.04   
    79. D(H  15,C   5,C   4,C   3)   -169.00 -0.000020    0.64   -168.36   
    80. D(H  14,C   5,C   4,H  13)   -166.96 -0.001296    1.38   -165.58   
    81. D(H  14,C   5,C   4,H  12)    -48.43 -0.000011    0.62    -47.81   
    82. D(H  14,C   5,C   4,C   3)     73.37 -0.001343    1.43     74.80   
    83. D(C   0,C   5,C   4,H  13)     72.46 -0.000978    1.07     73.53   
    84. D(C   0,C   5,C   4,H  12)   -169.01  0.000306    0.31   -168.70   
    85. D(C   0,C   5,C   4,C   3)    -47.21 -0.001025    1.12    -46.09   
    86. D(H  15,C   5,C   0,H   6)    -42.43 -0.000708    0.01    -42.43   
    87. D(H  15,C   5,C   0,C   1)    138.07 -0.000730   -0.22    137.85   
    88. D(H  15,C   5,C   4,H  13)    -49.32  0.000027    0.59    -48.74   
    89. D(H  14,C   5,C   0,H   6)     74.20  0.000800   -0.75     73.45   
    ----------------------------------------------------------------------------

         *************************************************************
         *                GEOMETRY OPTIMIZATION CYCLE   2            *
         *************************************************************
---------------------------------
CARTESIAN COORDINATES (ANGSTROEM)
---------------------------------
  C      0.251763    1.493973   -0.315885
  C     -1.018310    1.162460   -0.076464
  C     -1.459597   -0.235115    0.257098
  C     -0.277610   -1.122331    0.645737
  C      0.871760   -0.935945   -0.342949
  C      1.382199    0.503578   -0.295757
  H      0.516565    2.534121   -0.537191
  H     -1.804179    1.924891   -0.123187
  H     -2.201911   -0.204531    1.071911
  H     -1.979313   -0.665548   -0.618902
  H      0.069178   -0.840786    1.654445
  H     -0.590347   -2.177422    0.687062
  H      1.691823   -1.638040   -0.125354
  H      0.508031   -1.157631   -1.360584
  H      1.978749    0.659606    0.622190
  H      2.061298    0.699021   -1.142169

----------------------------
CARTESIAN COORDINATES (A.U.)
----------------------------
  NO LB      ZA    FRAG     MASS         X           Y           Z
   0 C     6.0000    0    12.011    0.475763    2.823199   -0.596937
   1 C     6.0000    0    12.011   -1.924327    2.196731   -0.144497
   2 C     6.0000    0    12.011   -2.758238   -0.444303    0.485845
   3 C     6.0000    0    12.011   -0.524607   -2.120899    1.220265
   4 C     6.0000    0    12.011    1.647387   -1.768679   -0.648080
   5 C     6.0000    0    12.011    2.611977    0.951624   -0.558899
   6 H     1.0000    0     1.008    0.976166    4.788794   -1.015144
   7 H     1.0000    0     1.008   -3.409405    3.637516   -0.232789
   8 H     1.0000    0     1.008   -4.161008   -0.386508    2.025617
   9 H     1.0000    0     1.008   -3.740359   -1.257703   -1.169555
  10 H     1.0000    0     1.008    0.130728   -1.588856    3.126449
  11 H     1.0000    0     1.008   -1.115595   -4.114731    1.298358
  12 H     1.0000    0     1.008    3.197083   -3.095447   -0.236885
  13 H     1.0000    0     1.008    0.960040   -2.187605   -2.571130
  14 H     1.0000    0     1.008    3.739294    1.246475    1.175768
  15 H     1.0000    0     1.008    3.895289    1.320958   -2.158386

--------------------------------
INTERNAL COORDINATES (ANGSTROEM)
--------------------------------
 C      0   0   0     0.000000000000     0.00000000     0.00000000
 C      1   0   0     1.334282030614     0.00000000     0.00000000
 C      2   1   0     1.503067988909   123.38781295     0.00000000
 C      3   2   1     1.528164195901   111.66529790    15.00334242
 C      4   3   2     1.527511019700   110.27607029   314.03325224
 C      1   2   3     1.503054162411   123.35210481     0.78780990
 H      1   2   3     1.095903403441   120.13594695   181.07003290
 H      2   1   3     1.095935313822   120.13700812   180.35037487
 H      3   2   1     1.102671728029   109.62373041   137.69909668
 H      3   2   1     1.105781393423   108.91213988   253.55748248
 H      4   3   2     1.103187907941   109.11761827    73.62309630
 H      4   3   2     1.101239424999   110.25113414   191.38018756
 H      5   4   3     1.101267113477   110.77092532   185.19960180
 H      5   4   3     1.103187598985   108.93232717   303.16417276
 H      6   1   2     1.105822418077   108.89719580   253.71948224
[...]
  48   0.0000       0.594953        16.1895 
  49   0.0000       0.623466        16.9654 
  50   0.0000       0.636873        17.3302 
  51   0.0000       0.641779        17.4637 
  52   0.0000       0.653313        17.7776 
  53   0.0000       0.656058        17.8522 
  54   0.0000       0.678457        18.4617 
  55   0.0000       0.678593        18.4655 
  56   0.0000       0.694661        18.9027 
  57   0.0000       0.699337        19.0299 
  58   0.0000       0.706954        19.2372 
  59   0.0000       0.711844        19.3703 
  60   0.0000       0.713148        19.4057 
  61   0.0000       0.727815        19.8049 
  62   0.0000       0.730959        19.8904 
  63   0.0000       0.734723        19.9928 
  64   0.0000       0.740964        20.1627 
  65   0.0000       0.765802        20.8385 
  66   0.0000       0.822334        22.3768 
  67   0.0000       0.832177        22.6447 
  68   0.0000       0.880686        23.9647 
  69   0.0000       1.012222        27.5440 
  70   0.0000       1.041288        28.3349 
  71   0.0000       1.068241        29.0683 
  72   0.0000       1.161044        31.5936 
  73   0.0000       1.177798        32.0495 
  74   0.0000       1.220833        33.2206 
  75   0.0000       1.268124        34.5074 
  76   0.0000       1.305691        35.5297 
  77   0.0000       1.315809        35.8050 
  78   0.0000       1.344756        36.5927 
  79   0.0000       1.492661        40.6174 
  80   0.0000       1.564736        42.5786 
  81   0.0000       1.565785        42.6072 
  82   0.0000       1.595896        43.4265 
  83   0.0000       1.664132        45.2833 
  84   0.0000       1.666131        45.3377 
  85   0.0000       1.719248        46.7831 
  86   0.0000       1.756708        47.8025 
  87   0.0000       1.766938        48.0808 
  88   0.0000       1.780684        48.4549 
  89   0.0000       1.802737        49.0550 
  90   0.0000       1.805318        49.1252 
  91   0.0000       1.828451        49.7547 
  92   0.0000       1.838199        50.0199 
  93   0.0000       1.848395        50.2974 
  94   0.0000       1.854219        50.4559 
  95   0.0000       1.879768        51.1511 
  96   0.0000       1.889941        51.4279 
  97   0.0000       1.895337        51.5747 
  98   0.0000       1.902825        51.7785 
  99   0.0000       1.930465        52.5306 
 100   0.0000       1.942943        52.8702 
 101   0.0000       1.970616        53.6232 
 102   0.0000       1.975962        53.7687 
 103   0.0000       2.027490        55.1708 
 104   0.0000       2.067038        56.2470 
 105   0.0000       2.069305        56.3087 
 106   0.0000       2.148522        58.4642 
 107   0.0000       2.172689        59.1219 
 108   0.0000       2.219957        60.4081 
 109   0.0000       2.232447        60.7480 
 110   0.0000       2.263257        61.5864 
 111   0.0000       2.299076        62.5610 
 112   0.0000       2.398114        65.2560 
 113   0.0000       2.400232        65.3136 
 114   0.0000       2.424903        65.9850 
 115   0.0000       2.478084        67.4321 
 116   0.0000       2.483070        67.5678 
 117   0.0000       2.583514        70.3010 
 118   0.0000       2.603373        70.8414 
 119   0.0000       2.612032        71.0770 
 120   0.0000       2.643132        71.9233 
 121   0.0000       2.664637        72.5085 
 122   0.0000       2.733414        74.3800 
 123   0.0000       2.776856        75.5621 
 124   0.0000       2.845295        77.4244 
 125   0.0000       2.922282        79.5193 
 126   0.0000       2.943594        80.0993 
 127   0.0000       2.956336        80.4460 
 128   0.0000       3.018705        82.1431 
 129   0.0000       3.032102        82.5077 
 130   0.0000       3.045594        82.8748 
 131   0.0000       3.066116        83.4333 
 132   0.0000       3.106526        84.5329 
 133   0.0000       3.328978        90.5861 

                    ********************************
                    * MULLIKEN POPULATION ANALYSIS *
                    ********************************

-----------------------
MULLIKEN ATOMIC CHARGES
-----------------------
   0 C :   -0.109182
   1 C :   -0.108103
   2 C :    0.001736
   3 C :   -0.072606
   4 C :   -0.073089
   5 C :    0.002608
   6 H :    0.022997
   7 H :    0.023058
   8 H :    0.040140
   9 H :    0.045050
  10 H :    0.038307
  11 H :    0.032784
  12 H :    0.032809
  13 H :    0.038449
  14 H :    0.045061
  15 H :    0.039980
Sum of atomic charges:    0.0000000

--------------------------------
MULLIKEN REDUCED ORBITAL CHARGES
--------------------------------
  0 C s       :     3.156341  s :     3.156341
      pz      :     1.002694  p :     2.917499
      px      :     0.992651
      py      :     0.922155
      dz2     :     0.002676  d :     0.035341
      dxz     :     0.008420
      dyz     :     0.001919
      dx2y2   :     0.011737
      dxy     :     0.010589
  1 C s       :     3.155483  s :     3.155483
      pz      :     1.009785  p :     2.917280
      px      :     0.963513
      py      :     0.943982
      dz2     :     0.002970  d :     0.035339
      dxz     :     0.006694
      dyz     :     0.003654
      dx2y2   :     0.009114
      dxy     :     0.012907
  2 C s       :     2.989544  s :     2.989544
      pz      :     1.009335  p :     2.972224
      px      :     1.002148
      py      :     0.960741
      dz2     :     0.004840  d :     0.036495
      dxz     :     0.009991
      dyz     :     0.006004
      dx2y2   :     0.008008
      dxy     :     0.007653
  3 C s       :     3.062962  s :     3.062962
      pz      :     1.006993  p :     2.973355
      px      :     0.961767
      py      :     1.004595
      dz2     :     0.009237  d :     0.036288
      dxz     :     0.008488
      dyz     :     0.002930
      dx2y2   :     0.008084
      dxy     :     0.007550
  4 C s       :     3.063354  s :     3.063354
      pz      :     1.005118  p :     2.973443
      px      :     0.979392
      py      :     0.988933
      dz2     :     0.009027  d :     0.036292
      dxz     :     0.006862
      dyz     :     0.004606
      dx2y2   :     0.006162
      dxy     :     0.009635
  5 C s       :     2.989056  s :     2.989056
      pz      :     1.014187  p :     2.971835
      px      :     1.001235
      py      :     0.956413
      dz2     :     0.005322  d :     0.036500
      dxz     :     0.010039
      dyz     :     0.004751
      dx2y2   :     0.007343
      dxy     :     0.009046
  6 H s       :     0.953944  s :     0.953944
      pz      :     0.005208  p :     0.023059
      px      :     0.004016
      py      :     0.013835
  7 H s       :     0.953884  s :     0.953884
      pz      :     0.004736  p :     0.023058
      px      :     0.009283
      py      :     0.009039
  8 H s       :     0.937044  s :     0.937044
      pz      :     0.010324  p :     0.022816
      px      :     0.008405
      py      :     0.004087
  9 H s       :     0.932021  s :     0.932021
      pz      :     0.010763  p :     0.022930
      px      :     0.006605
      py      :     0.005562
 10 H s       :     0.939316  s :     0.939316
      pz      :     0.012501  p :     0.022377
      px      :     0.004832
      py      :     0.005044
 11 H s       :     0.944762  s :     0.944762
      pz      :     0.004497  p :     0.022454
      px      :     0.004682
      py      :     0.013274
 12 H s       :     0.944738  s :     0.944738
      pz      :     0.004977  p :     0.022453
      px      :     0.009551
      py      :     0.007925
 13 H s       :     0.939174  s :     0.939174
      pz      :     0.012665  p :     0.022377
      px      :     0.005219
      py      :     0.004493
 14 H s       :     0.932009  s :     0.932009
      pz      :     0.011373  p :     0.022930
      px      :     0.007451
      py      :     0.004106
 15 H s       :     0.937204  s :     0.937204
      pz      :     0.010822  p :     0.022816
      px      :     0.007894
      py      :     0.004100


                     *******************************
                     * LOEWDIN POPULATION ANALYSIS *
                     *******************************

----------------------
LOEWDIN ATOMIC CHARGES
----------------------
   0 C :   -0.053015
   1 C :   -0.052996
   2 C :   -0.051648
   3 C :   -0.046256
   4 C :   -0.046293
   5 C :   -0.051613
   6 H :    0.027431
   7 H :    0.027434
   8 H :    0.034098
   9 H :    0.035012
  10 H :    0.027338
  11 H :    0.027004
  12 H :    0.027010
  13 H :    0.027392
  14 H :    0.035033
  15 H :    0.034069

-------------------------------
LOEWDIN REDUCED ORBITAL CHARGES
-------------------------------
  0 C s       :     2.872928  s :     2.872928
      pz      :     0.987056  p :     3.090937
      px      :     1.073763
      py      :     1.030119
      dz2     :     0.005952  d :     0.089150
      dxz     :     0.016624
      dyz     :     0.003911
      dx2y2   :     0.031926
      dxy     :     0.030736
  1 C s       :     2.872903  s :     2.872903
      pz      :     0.986574  p :     3.090946
      px      :     1.077719
      py      :     1.026653
      dz2     :     0.006525  d :     0.089147
      dxz     :     0.013429
      dyz     :     0.007377
      dx2y2   :     0.026711
      dxy     :     0.035105
  2 C s       :     2.835700  s :     2.835700
      pz      :     1.058930  p :     3.124978
      px      :     1.033113
      py      :     1.032935
      dz2     :     0.011961  d :     0.090970
      dxz     :     0.025196
      dyz     :     0.014213
      dx2y2   :     0.019337
      dxy     :     0.020263
  3 C s       :     2.839705  s :     2.839705
      pz      :     1.048734  p :     3.117339
      px      :     1.025406
      py      :     1.043199
      dz2     :     0.022368  d :     0.089212
      dxz     :     0.021692
      dyz     :     0.006322
      dx2y2   :     0.019566
      dxy     :     0.019262
  4 C s       :     2.839678  s :     2.839678
      pz      :     1.052687  p :     3.117384
      px      :     1.038326
      py      :     1.026371
      dz2     :     0.022182  d :     0.089231
      dxz     :     0.018237
      dyz     :     0.009421
      dx2y2   :     0.015995
      dxy     :     0.023396
  5 C s       :     2.835665  s :     2.835665
      pz      :     1.061515  p :     3.124952
      px      :     1.035308
      py      :     1.028130
      dz2     :     0.014239  d :     0.090996
      dxz     :     0.025686
      dyz     :     0.009208
      dx2y2   :     0.017882
      dxy     :     0.023981
  6 H s       :     0.904169  s :     0.904169
      pz      :     0.015953  p :     0.068400
      px      :     0.012697
      py      :     0.039751
  7 H s       :     0.904170  s :     0.904170
      pz      :     0.014858  p :     0.068397
      px      :     0.025625
      py      :     0.027913
  8 H s       :     0.899713  s :     0.899713
      pz      :     0.028101  p :     0.066189
      px      :     0.025132
      py      :     0.012956
  9 H s       :     0.898889  s :     0.898889
      pz      :     0.029649  p :     0.066099
      px      :     0.019446
      py      :     0.017005
 10 H s       :     0.906754  s :     0.906754
      pz      :     0.036321  p :     0.065908
      px      :     0.015536
      py      :     0.014051
 11 H s       :     0.906884  s :     0.906884
      pz      :     0.012932  p :     0.066111
      px      :     0.015382
      py      :     0.037797
 12 H s       :     0.906886  s :     0.906886
      pz      :     0.014103  p :     0.066104
      px      :     0.028150
      py      :     0.023851
 13 H s       :     0.906700  s :     0.906700
      pz      :     0.036472  p :     0.065908
      px      :     0.015397
      py      :     0.014039
 14 H s       :     0.898876  s :     0.898876
      pz      :     0.031083  p :     0.066091
      px      :     0.021506
      py      :     0.013502
 15 H s       :     0.899748  s :     0.899748
      pz      :     0.029356  p :     0.066183
      px      :     0.022997
      py      :     0.013830


                      *****************************
                      * MAYER POPULATION ANALYSIS *
                      *****************************

  NA   - Mulliken gross atomic population
  ZA   - Total nuclear charge
  QA   - Mulliken gross atomic charge
  VA   - Mayer's total valence
  BVA  - Mayer's bonded valence
  FA   - Mayer's free valence

  ATOM       NA         ZA         QA         VA         BVA        FA
  0 C      6.1092     6.0000    -0.1092     4.0050     4.0050     0.0000
  1 C      6.1081     6.0000    -0.1081     4.0048     4.0048     0.0000
  2 C      5.9983     6.0000     0.0017     3.9621     3.9621    -0.0000
  3 C      6.0726     6.0000    -0.0726     4.0559     4.0559    -0.0000
  4 C      6.0731     6.0000    -0.0731     4.0564     4.0564    -0.0000
  5 C      5.9974     6.0000     0.0026     3.9615     3.9615     0.0000
  6 H      0.9770     1.0000     0.0230     0.9827     0.9827    -0.0000
  7 H      0.9769     1.0000     0.0231     0.9827     0.9827    -0.0000
  8 H      0.9599     1.0000     0.0401     0.9750     0.9750    -0.0000
  9 H      0.9550     1.0000     0.0450     0.9756     0.9756     0.0000
 10 H      0.9617     1.0000     0.0383     0.9725     0.9725    -0.0000
 11 H      0.9672     1.0000     0.0328     0.9730     0.9730    -0.0000
 12 H      0.9672     1.0000     0.0328     0.9730     0.9730    -0.0000
 13 H      0.9616     1.0000     0.0384     0.9724     0.9724    -0.0000
 14 H      0.9549     1.0000     0.0451     0.9756     0.9756    -0.0000
 15 H      0.9600     1.0000     0.0400     0.9751     0.9751     0.0000

  Mayer bond orders larger than 0.100000
B(  0-C ,  1-C ) :   1.9478 B(  0-C ,  5-C ) :   1.0269 B(  0-C ,  6-H ) :   0.9641 
B(  1-C ,  2-C ) :   1.0270 B(  1-C ,  7-H ) :   0.9640 B(  2-C ,  3-C ) :   1.0758 
B(  2-C ,  8-H ) :   0.9382 B(  2-C ,  9-H ) :   0.9264 B(  3-C ,  4-C ) :   1.0677 
B(  3-C , 10-H ) :   0.9507 B(  3-C , 11-H ) :   0.9448 B(  4-C ,  5-C ) :   1.0758 
B(  4-C , 12-H ) :   0.9448 B(  4-C , 13-H ) :   0.9507 B(  5-C , 14-H ) :   0.9263 
B(  5-C , 15-H ) :   0.9382 


------------------
HIRSHFELD ANALYSIS
------------------

Total integrated alpha density =     23.000028594
Total integrated beta density  =     23.000028594

  ATOM     CHARGE      SPIN    
   0 C   -0.045974    0.000000
   1 C   -0.045948    0.000000
   2 C   -0.040811    0.000000
   3 C   -0.038723    0.000000
   4 C   -0.038723    0.000000
   5 C   -0.040811    0.000000
   6 H    0.028149    0.000000
   7 H    0.028131    0.000000
   8 H    0.027526    0.000000
   9 H    0.025291    0.000000
  10 H    0.020782    0.000000
  11 H    0.023702    0.000000
  12 H    0.023727    0.000000
  13 H    0.020806    0.000000
  14 H    0.025297    0.000000
  15 H    0.027522    0.000000

  TOTAL  -0.000057    0.000000

-------
TIMINGS
-------

Total SCF time: 0 days 0 hours 0 min 4 sec 

Total time                  ....       4.210 sec
Sum of individual times     ....       4.050 sec  ( 96.2%)

Fock matrix formation       ....       3.337 sec  ( 79.3%)
  Split-RI-J                ....       0.340 sec  ( 10.2% of F)
  Chain of spheres X        ....       2.453 sec  ( 73.5% of F)
  XC integration            ....       0.522 sec  ( 15.6% of F)
    Basis function eval.    ....       0.201 sec  ( 38.5% of XC)
    Density eval.           ....       0.110 sec  ( 21.0% of XC)
    XC-Functional eval.     ....       0.042 sec  (  8.0% of XC)
    XC-Potential eval.      ....       0.093 sec  ( 17.9% of XC)
Diagonalization             ....       0.006 sec  (  0.1%)
Density matrix formation    ....       0.002 sec  (  0.0%)
Population analysis         ....       0.140 sec  (  3.3%)
Initial guess               ....       0.007 sec  (  0.2%)
Orbital Transformation      ....       0.000 sec  (  0.0%)
Orbital Orthonormalization  ....       0.003 sec  (  0.1%)
DIIS solution               ....       0.003 sec  (  0.1%)
SOSCF solution              ....       0.018 sec  (  0.4%)
Grid generation             ....       0.537 sec  ( 12.8%)

Maximum memory used throughout the entire SCF-calculation: 50.4 MB


-------------------------------------------------------------------------------
                          DFT DISPERSION CORRECTION                            
                                                                               
                              DFTD3 V3.1  Rev 1                                
                          USING Becke-Johnson damping                          
-------------------------------------------------------------------------------
The PBE0 functional is recognized
Active option DFTDOPT                   ...         4   

molecular C6(AA) [au] = 1997.600416 


            DFT-D V3
 parameters
 s6 scaling factor         :     1.0000 
 a1 scaling factor         :     0.4145 
 s8 scaling factor         :     1.2177 
 a2 scaling factor         :     4.8593 
 ad hoc parameters k1-k3   :    16.0000     1.3333    -4.0000 

 Edisp/kcal,au: -7.454734133294  -0.011879873765 
 E6   /kcal   :  -4.776453085 
 E8   /kcal   :  -2.678281048 
 % E8         :  35.927251064 

-------------------------   ----------------
Dispersion correction           -0.011879874
-------------------------   ----------------


-------------------------   --------------------
FINAL SINGLE POINT ENERGY      -234.206943507214
-------------------------   --------------------

                                *** OPTIMIZATION RUN DONE ***

                            ***************************************
                            *     ORCA property calculations      *
                            ***************************************

                                    ---------------------
                                    Active property flags
                                    ---------------------
   (+) Dipole Moment


------------------------------------------------------------------------------
                       ORCA ELECTRIC PROPERTIES CALCULATION
------------------------------------------------------------------------------

Dipole Moment Calculation                       ... on
Quadrupole Moment Calculation                   ... off
Polarizability Calculation                      ... off
GBWName                                         ... p0_C6H10_conf1_opt_orca.gbw
Electron density                                ... p0_C6H10_conf1_opt_orca.scfp
The origin for moment calculation is the CENTER OF MASS  = (-0.063740,  0.221063 -0.032672)

-------------
DIPOLE MOMENT
-------------
                                X             Y             Z
Electronic contribution:     -0.52207       1.81021      -0.26749
Nuclear contribution   :      0.55279      -1.91655       0.28331
                        -----------------------------------------
Total Dipole Moment    :      0.03072      -0.10634       0.01582
                        -----------------------------------------
Magnitude (a.u.)       :      0.11181
Magnitude (Debye)      :      0.28421



--------------------
Rotational spectrum 
--------------------
 
Rotational constants in cm-1:     0.158669     0.152133     0.085584 
Rotational constants in MHz :  4756.789955  4560.819557  2565.751143 

 Dipole components along the rotational axes: 
x,y,z [a.u.] :    -0.000145     0.111813     0.000122 
x,y,z [Debye]:    -0.000369     0.284207     0.000311 

 

Timings for individual modules:

Sum of individual times         ...       42.266 sec (=   0.704 min)
GTO integral calculation        ...        2.592 sec (=   0.043 min)   6.1 %
SCF iterations                  ...       29.430 sec (=   0.490 min)  69.6 %
SCF Gradient evaluation         ...        9.970 sec (=   0.166 min)  23.6 %
Geometry relaxation             ...        0.275 sec (=   0.005 min)   0.7 %
                             ****ORCA TERMINATED NORMALLY****
TOTAL RUN TIME: 0 days 0 hours 0 minutes 44 seconds 44 msec
