      -----------------------------------------------------------      
     |                   =====================                   |     
     |                           x T B                           |     
     |                   =====================                   |     
     |                         S. Grimme                         |     
     |          Mulliken Center for Theoretical Chemistry        |     
     |                    University of Bonn                     |     
      -----------------------------------------------------------      

   * xtb version 6.6.1 (8d0f1dd) compiled by 'conda@1efc2f54142f' on 2023-08-01

   xtb is free software: you can redistribute it and/or modify it under
   the terms of the GNU Lesser General Public License as published by
   the Free Software Foundation, either version 3 of the License, or
   (at your option) any later version.
   
   xtb is distributed in the hope that it will be useful,
   but WITHOUT ANY WARRANTY; without even the implied warranty of
   MERCHANTABILITY or FITNESS FOR A PARTICULAR PURPOSE.  See the
   GNU Lesser General Public License for more details.
   
   Cite this work as:
   * C. Bannwarth, E. Caldeweyher, S. Ehlert, A. Hansen, P. Pracht,
     J. Seibert, S. Spicher, S. Grimme, WIREs Comput. Mol. Sci., 2020, 11,
     e01493. DOI: 10.1002/wcms.1493
   
   for GFN2-xTB:
   * C. Bannwarth, S. Ehlert and S. Grimme., J. Chem. Theory Comput., 2019,
     15, 1652-1671. DOI: 10.1021/acs.jctc.8b01176
   for GFN1-xTB:
   * S. Grimme, C. Bannwarth, P. Shushkov, J. Chem. Theory Comput., 2017,
     13, 1989-2009. DOI: 10.1021/acs.jctc.7b00118
   for GFN0-xTB:
   * P. Pracht, E. Caldeweyher, S. Ehlert, S. Grimme, ChemRxiv, 2019, preprint.
     DOI: 10.26434/chemrxiv.8326202.v1
   for GFN-FF:
   * S. Spicher and S. Grimme, Angew. Chem. Int. Ed., 2020, 59, 15665-15673.
     DOI: 10.1002/anie.202004239
   
   for ALPB and GBSA implicit solvation:
   * S. Ehlert, M. Stahn, S. Spicher, S. Grimme, J. Chem. Theory Comput.,
     2021, 17, 4250-4261. DOI: 10.1021/acs.jctc.1c00471
   
   for DFT-D4:
   * E. Caldeweyher, C. Bannwarth and S. Grimme, J. Chem. Phys., 2017,
     147, 034112. DOI: 10.1063/1.4993215
   * E. Caldeweyher, S. Ehlert, A. Hansen, H. Neugebauer, S. Spicher,
     C. Bannwarth and S. Grimme, J. Chem. Phys., 2019, 150, 154122.
     DOI: 10.1063/1.5090222
   * E. Caldeweyher, J.-M. Mewes, S. Ehlert and S. Grimme, Phys. Chem. Chem. Phys.
     2020, 22, 8499-8512. DOI: 10.1039/D0CP00502A
   
   for sTDA-xTB:
   * S. Grimme and C. Bannwarth, J. Chem. Phys., 2016, 145, 054103.
     DOI: 10.1063/1.4959605
   
   in the mass-spec context:
   * V. Asgeirsson, C. Bauer and S. Grimme, Chem. Sci., 2017, 8, 4879.
     DOI: 10.1039/c7sc00601b
   * J. Koopman and S. Grimme, ACS Omega 2019, 4, 12, 15120-15133.
     DOI: 10.1021/acsomega.9b02011
   
   for metadynamics refer to:
   * S. Grimme, J. Chem. Theory Comput., 2019, 155, 2847-2862
     DOI: 10.1021/acs.jctc.9b00143
   
   for SPH calculations refer to:
   * S. Spicher and S. Grimme, J. Chem. Theory Comput., 2021, 17, 1701-1714
     DOI: 10.1021/acs.jctc.0c01306
   
   with help from (in alphabetical order)
   P. Atkinson, C. Bannwarth, F. Bohle, G. Brandenburg, E. Caldeweyher
   M. Checinski, S. Dohm, S. Ehlert, S. Ehrlich, I. Gerasimov, C. Hölzer
   A. Katbashev, J. Koopman, C. Lavigne, S. Lehtola, F. März, M. Müller,
   F. Musil, H. Neugebauer, J. Pisarek, C. Plett, P. Pracht, F. Pultar,
   J. Seibert, P. Shushkov, S. Spicher, M. Stahn, M. Steiner, T. Strunk,
   J. Stückrath, T. Rose, and J. Unsleber
   
 * started run on 2025/05/23 at 11:04:01.569     

           -------------------------------------------------
          |                Calculation Setup                |
           -------------------------------------------------

          program call               : /gpfs/fs1/home/copan/code/autode-practice/.pixi/envs/default/bin/xtb p0_C6H10_conf1_opt_xtb.xyz --chrg 0 --uhf 0 --opt
          hostname                   : beboplogin4.lcrc.anl.gov
          coordinate file            : p0_C6H10_conf1_opt_xtb.xyz
          omp threads                :                     8

   ID    Z sym.   atoms
    1    6 C      1-6
    2    1 H      7-16

           -------------------------------------------------
          |                 G F N 2 - x T B                 |
           -------------------------------------------------

        Reference                      10.1021/acs.jctc.8b01176
      * Hamiltonian:
        H0-scaling (s, p, d)           1.850000    2.230000    2.230000
        zeta-weighting                 0.500000
      * Dispersion:
        s8                             2.700000
        a1                             0.520000
        a2                             5.000000
        s9                             5.000000
      * Repulsion:
        kExp                           1.500000    1.000000
        rExp                           1.000000
      * Coulomb:
        alpha                          2.000000
        third order                    shell-resolved
        anisotropic                    true
        a3                             3.000000
        a5                             4.000000
        cn-shift                       1.200000
        cn-exp                         4.000000
        max-rad                        5.000000


          ...................................................
          :                      SETUP                      :
          :.................................................:
          :  # basis functions                  34          :
          :  # atomic orbitals                  34          :
          :  # shells                           22          :
          :  # electrons                        34          :
          :  max. iterations                   250          :
          :  Hamiltonian                  GFN2-xTB          :
          :  restarted?                      false          :
          :  GBSA solvation                  false          :
          :  PC potential                    false          :
          :  electronic temp.          300.0000000     K    :
          :  accuracy                    1.0000000          :
          :  -> integral cutoff          0.2500000E+02      :
          :  -> integral neglect         0.1000000E-07      :
          :  -> SCF convergence          0.1000000E-05 Eh   :
          :  -> wf. convergence          0.1000000E-03 e    :
          :  Broyden damping             0.4000000          :
          ...................................................

 iter      E             dE          RMSdq      gap      omega  full diag
   1    -18.1533150 -0.181533E+02  0.337E+00    5.25       0.0  T
   2    -18.1931919 -0.398769E-01  0.195E+00    5.18       1.0  T
   3    -18.1937853 -0.593406E-03  0.800E-01    5.13       1.0  T
   4    -18.1939083 -0.122994E-03  0.834E-02    5.13       1.0  T
   5    -18.1939153 -0.697875E-05  0.473E-02    5.13       1.0  T
   6    -18.1939089  0.636056E-05  0.303E-02    5.13       1.0  T
   7    -18.1939185 -0.955373E-05  0.241E-03    5.13      10.4  T
   8    -18.1939185 -0.204094E-07  0.120E-03    5.13      20.8  T
   9    -18.1939185 -0.194684E-08  0.178E-04    5.13     140.7  T
  10    -18.1939185 -0.354632E-10  0.788E-05    5.13     317.3  T

   *** convergence criteria satisfied after 10 iterations ***

         #    Occupation            Energy/Eh            Energy/eV
      -------------------------------------------------------------
         1        2.0000           -0.6339429             -17.2505
       ...           ...                  ...                  ...
        11        2.0000           -0.4678606             -12.7311
        12        2.0000           -0.4620019             -12.5717
        13        2.0000           -0.4567657             -12.4292
        14        2.0000           -0.4311722             -11.7328
        15        2.0000           -0.4158455             -11.3157
        16        2.0000           -0.4045944             -11.0096
        17        2.0000           -0.3801651             -10.3448 (HOMO)
        18                         -0.1915696              -5.2129 (LUMO)
        19                          0.0804772               2.1899
        20                          0.0900391               2.4501
        21                          0.0968415               2.6352
        22                          0.1025926               2.7917
       ...                                ...                  ...
        34                          0.6095296              16.5861
      -------------------------------------------------------------
                  HL-Gap            0.1885954 Eh            5.1319 eV
             Fermi-level           -0.2858673 Eh           -7.7788 eV

 SCC (total)                   0 d,  0 h,  0 min,  0.030 sec
 SCC setup                      ...        0 min,  0.000 sec (  0.910%)
 Dispersion                     ...        0 min,  0.000 sec (  0.464%)
 classical contributions        ...        0 min,  0.000 sec (  0.672%)
 integral evaluation            ...        0 min,  0.000 sec (  1.584%)
 iterations                     ...        0 min,  0.027 sec ( 91.601%)
 molecular gradient             ...        0 min,  0.001 sec (  3.690%)
 printout                       ...        0 min,  0.000 sec (  0.997%)

         :::::::::::::::::::::::::::::::::::::::::::::::::::::
         ::                     SUMMARY                     ::
         :::::::::::::::::::::::::::::::::::::::::::::::::::::
         :: total energy             -17.917777453415 Eh    ::
         :: gradient norm              0.055340806696 Eh/a0 ::
         :: HOMO-LUMO gap              5.131943062350 eV    ::
         ::.................................................::
         :: SCC energy               -18.193918495593 Eh    ::
         :: -> isotropic ES            0.002327874872 Eh    ::
         :: -> anisotropic ES          0.004428960978 Eh    ::
         :: -> anisotropic XC          0.012861294896 Eh    ::
         :: -> dispersion             -0.010206642175 Eh    ::
         :: repulsion energy           0.276122690462 Eh    ::
         :: add. restraining           0.000000000000 Eh    ::
         :: total charge               0.000000000000 e     ::
         :::::::::::::::::::::::::::::::::::::::::::::::::::::

      ----------------------------------------------------------- 
     |                   =====================                   |
     |                        A N C O P T                        |
     |                   =====================                   |
     |               Approximate Normal Coordinate               |
     |                Rational Function Optimizer                |
      ----------------------------------------------------------- 

          ...................................................
          :                      SETUP                      :
          :.................................................:
          :   optimization level            normal          :
          :   max. optcycles                   200          :
          :   ANC micro-cycles                  20          :
          :   degrees of freedom                42          :
          :.................................................:
          :   RF solver                   davidson          :
          :   write xtbopt.log                true          :
          :   linear?                        false          :
          :   energy convergence         0.5000000E-05 Eh   :
          :   grad. convergence          0.1000000E-02 Eh/α :
          :   maxmium RF displ.          1.0000000          :
          :   Hlow (freq-cutoff)         0.1000000E-01      :
          :   Hmax (freq-cutoff)         5.0000000          :
          :   S6 in model hess.         20.0000000          :
          ...................................................

generating ANC from model Hessian ...
Using Lindh-Hessian (1995)
 Shifting diagonal of input Hessian by    1.1583801165249968E-003
 Lowest  eigenvalues of input Hessian
    0.000000    0.000000    0.000000    0.000000    0.000000    0.000000
    0.010000    0.011037    0.015965    0.020433    0.031001    0.035533
    0.046970    0.049242    0.050687    0.051514    0.054195    0.058894
 Highest eigenvalues
    1.161942    1.182815    1.219231    1.248102    1.509411    1.869728


........................................................................
.............................. CYCLE    1 ..............................
........................................................................

 iter      E             dE          RMSdq      gap      omega  full diag
   1    -18.1939185 -0.181939E+02  0.130E-05    5.13       0.0  T
   2    -18.1939185 -0.746070E-12  0.568E-06    5.13    4397.9  T
   3    -18.1939185 -0.746070E-13  0.299E-06    5.13    8348.3  T
     SCC iter.                  ...        0 min,  0.003 sec
     gradient                   ...        0 min,  0.001 sec
 * total energy  :   -17.9177775 Eh     change       -0.7865708E-11 Eh
   gradient norm :     0.0553407 Eh/α   predicted     0.0000000E+00 (-100.00%)
   displ. norm   :     0.4873190 α      lambda       -0.1572680E-01
   maximum displ.:     0.2879077 α      in ANC's #2, #4, #1, ...

........................................................................
.............................. CYCLE    2 ..............................
........................................................................

 iter      E             dE          RMSdq      gap      omega  full diag
   1    -18.2144270 -0.182144E+02  0.426E-01    5.16       0.0  T
   2    -18.2144523 -0.252904E-04  0.250E-01    5.16       1.0  T
   3    -18.2144468  0.544892E-05  0.316E-02    5.16       1.0  T
   4    -18.2144557 -0.883344E-05  0.142E-02    5.16       1.8  T
   5    -18.2144577 -0.204414E-05  0.449E-03    5.16       5.6  T
   6    -18.2144577 -0.448812E-07  0.122E-03    5.16      20.5  T
   7    -18.2144577 -0.246569E-08  0.363E-04    5.16      68.9  T
   8    -18.2144577 -0.834213E-10  0.127E-04    5.16     197.6  T
     SCC iter.                  ...        0 min,  0.004 sec
     gradient                   ...        0 min,  0.001 sec
 * total energy  :   -17.9272604 Eh     change       -0.9482925E-02 Eh
   gradient norm :     0.0201364 Eh/α   predicted    -0.9730797E-02 (   2.61%)
   displ. norm   :     0.3738272 α      lambda       -0.3070170E-02
   maximum displ.:     0.2841819 α      in ANC's #2, #1, #4, ...

........................................................................
.............................. CYCLE    3 ..............................
........................................................................

 iter      E             dE          RMSdq      gap      omega  full diag
   1    -18.2192316 -0.182192E+02  0.165E-01    5.20       0.0  T
   2    -18.2192339 -0.228211E-05  0.966E-02    5.20       1.0  T
   3    -18.2192271  0.678138E-05  0.259E-02    5.20       1.0  T
   4    -18.2192351 -0.801014E-05  0.399E-03    5.19       6.3  T
   5    -18.2192352 -0.682237E-07  0.167E-03    5.19      15.0  T
   6    -18.2192352 -0.376451E-08  0.266E-04    5.19      94.1  T
   7    -18.2192352 -0.748663E-10  0.124E-04    5.19     201.1  T
     SCC iter.                  ...        0 min,  0.004 sec
     gradient                   ...        0 min,  0.001 sec
 * total energy  :   -17.9294403 Eh     change       -0.2179875E-02 Eh
   gradient norm :     0.0126176 Eh/α   predicted    -0.1749607E-02 ( -19.74%)
   displ. norm   :     0.3639542 α      lambda       -0.1567187E-02
   maximum displ.:     0.2409703 α      in ANC's #2, #1, #4, ...

........................................................................
.............................. CYCLE    4 ..............................
........................................................................

 iter      E             dE          RMSdq      gap      omega  full diag
   1    -18.2207168 -0.182207E+02  0.124E-01    5.22       0.0  T
   2    -18.2207176 -0.729513E-06  0.732E-02    5.22       1.0  T
   3    -18.2207155  0.204887E-05  0.142E-02    5.22       1.8  T
   4    -18.2207180 -0.246789E-05  0.226E-03    5.22      11.1  T
   5    -18.2207180 -0.123633E-07  0.100E-03    5.22      25.0  T
   6    -18.2207180 -0.118624E-08  0.171E-04    5.22     146.2  T
     SCC iter.                  ...        0 min,  0.003 sec
     gradient                   ...        0 min,  0.001 sec
 * total energy  :   -17.9304935 Eh     change       -0.1053289E-02 Eh
   gradient norm :     0.0096997 Eh/α   predicted    -0.8873890E-03 ( -15.75%)
   displ. norm   :     0.2439344 α      lambda       -0.5804649E-03
   maximum displ.:     0.1890431 α      in ANC's #1, #2, #4, ...

........................................................................
.............................. CYCLE    5 ..............................
........................................................................

 iter      E             dE          RMSdq      gap      omega  full diag
   1    -18.2227711 -0.182228E+02  0.972E-02    5.24       0.0  T
   2    -18.2227717 -0.590058E-06  0.575E-02    5.24       1.0  T
   3    -18.2227716  0.964565E-07  0.468E-03    5.24       5.3  T
   4    -18.2227718 -0.202885E-06  0.240E-03    5.24      10.4  T
   5    -18.2227719 -0.455840E-07  0.847E-04    5.24      29.5  T
   6    -18.2227719 -0.772861E-09  0.211E-04    5.24     118.5  T
     SCC iter.                  ...        0 min,  0.004 sec
     gradient                   ...        0 min,  0.001 sec
 * total energy  :   -17.9309081 Eh     change       -0.4145126E-03 Eh
   gradient norm :     0.0064239 Eh/α   predicted    -0.3075075E-03 ( -25.81%)
   displ. norm   :     0.1991777 α      lambda       -0.2827632E-03
   maximum displ.:     0.1785118 α      in ANC's #1, #2, #26, ...

........................................................................
.............................. CYCLE    6 ..............................
........................................................................

 iter      E             dE          RMSdq      gap      omega  full diag
   1    -18.2237975 -0.182238E+02  0.749E-02    5.24       0.0  T
   2    -18.2237980 -0.445868E-06  0.443E-02    5.24       1.0  T
   3    -18.2237971  0.876552E-06  0.906E-03    5.24       2.8  T
   4    -18.2237981 -0.101100E-05  0.204E-03    5.24      12.3  T
   5    -18.2237982 -0.314952E-07  0.721E-04    5.24      34.7  T
   6    -18.2237982 -0.406533E-09  0.173E-04    5.24     144.9  T
     SCC iter.                  ...        0 min,  0.003 sec
     gradient                   ...        0 min,  0.001 sec
 * total energy  :   -17.9311180 Eh     change       -0.2099863E-03 Eh
   gradient norm :     0.0042593 Eh/α   predicted    -0.1469923E-03 ( -30.00%)
   displ. norm   :     0.1573544 α      lambda       -0.1517984E-03
   maximum displ.:     0.1496092 α      in ANC's #1, #2, #26, ...

........................................................................
.............................. CYCLE    7 ..............................
........................................................................

 iter      E             dE          RMSdq      gap      omega  full diag
   1    -18.2244981 -0.182245E+02  0.654E-02    5.24       0.0  T
   2    -18.2244984 -0.248974E-06  0.388E-02    5.24       1.0  T
   3    -18.2244965  0.186598E-05  0.129E-02    5.24       1.9  T
   4    -18.2244986 -0.209982E-05  0.133E-03    5.24      18.8  T
   5    -18.2244986 -0.637638E-08  0.564E-04    5.24      44.3  T
   6    -18.2244986 -0.408949E-09  0.130E-04    5.24     192.0  T
     SCC iter.                  ...        0 min,  0.003 sec
     gradient                   ...        0 min,  0.001 sec
 * total energy  :   -17.9312354 Eh     change       -0.1174027E-03 Eh
   gradient norm :     0.0028118 Eh/α   predicted    -0.7777788E-04 ( -33.75%)
   displ. norm   :     0.1346604 α      lambda       -0.1043849E-03
   maximum displ.:     0.1304706 α      in ANC's #1, #26, #4, ...

........................................................................
.............................. CYCLE    8 ..............................
........................................................................

 iter      E             dE          RMSdq      gap      omega  full diag
   1    -18.2248598 -0.182249E+02  0.414E-02    5.24       0.0  T
   2    -18.2248600 -0.218491E-06  0.246E-02    5.24       1.0  T
   3    -18.2248588  0.124086E-05  0.108E-02    5.24       2.3  T
   4    -18.2248602 -0.140607E-05  0.129E-03    5.24      19.4  T
   5    -18.2248602 -0.127215E-07  0.460E-04    5.24      54.3  T
   6    -18.2248602 -0.139153E-09  0.681E-05    5.24     366.9  T
     SCC iter.                  ...        0 min,  0.003 sec
     gradient                   ...        0 min,  0.001 sec
 * total energy  :   -17.9313141 Eh     change       -0.7864617E-04 Eh
   gradient norm :     0.0033998 Eh/α   predicted    -0.5313651E-04 ( -32.44%)
   displ. norm   :     0.1210001 α      lambda       -0.8255894E-04
   maximum displ.:     0.1145577 α      in ANC's #1, #2, #3, ...

........................................................................
.............................. CYCLE    9 ..............................
........................................................................

 iter      E             dE          RMSdq      gap      omega  full diag
   1    -18.2248114 -0.182248E+02  0.472E-02    5.23       0.0  T
   2    -18.2248115 -0.126094E-06  0.280E-02    5.23       1.0  T
   3    -18.2248102  0.130910E-05  0.108E-02    5.23       2.3  T
   4    -18.2248117 -0.147495E-05  0.975E-04    5.23      25.6  T
   5    -18.2248117 -0.196679E-08  0.361E-04    5.23      69.2  T
   6    -18.2248117 -0.247635E-09  0.936E-05    5.23     267.2  T
     SCC iter.                  ...        0 min,  0.003 sec
     gradient                   ...        0 min,  0.001 sec
 * total energy  :   -17.9313757 Eh     change       -0.6158967E-04 Eh
   gradient norm :     0.0022621 Eh/α   predicted    -0.4188277E-04 ( -32.00%)
   displ. norm   :     0.1116274 α      lambda       -0.5551642E-04
   maximum displ.:     0.1020183 α      in ANC's #1, #2, #4, ...

........................................................................
.............................. CYCLE   10 ..............................
........................................................................

 iter      E             dE          RMSdq      gap      omega  full diag
   1    -18.2247708 -0.182248E+02  0.372E-02    5.23       0.0  T
   2    -18.2247709 -0.840510E-07  0.221E-02    5.23       1.1  T
   3    -18.2247705  0.370304E-06  0.565E-03    5.23       4.4  T
   4    -18.2247709 -0.418610E-06  0.818E-04    5.23      30.6  T
   5    -18.2247709 -0.397874E-08  0.343E-04    5.23      73.0  T
     SCC iter.                  ...        0 min,  0.003 sec
     gradient                   ...        0 min,  0.001 sec
 * total energy  :   -17.9314165 Eh     change       -0.4085422E-04 Eh
   gradient norm :     0.0022751 Eh/α   predicted    -0.2810367E-04 ( -31.21%)
   displ. norm   :     0.0862411 α      lambda       -0.2954511E-04
   maximum displ.:     0.0794866 α      in ANC's #1, #2, #4, ...

........................................................................
.............................. CYCLE   11 ..............................
........................................................................

 iter      E             dE          RMSdq      gap      omega  full diag
   1    -18.2245829 -0.182246E+02  0.275E-02    5.23       0.0  T
   2    -18.2245829 -0.449399E-07  0.163E-02    5.23       1.5  T
   3    -18.2245828  0.963625E-07  0.302E-03    5.23       8.3  T
   4    -18.2245829 -0.114401E-06  0.660E-04    5.23      37.9  T
   5    -18.2245829 -0.246150E-08  0.281E-04    5.23      88.9  T
     SCC iter.                  ...        0 min,  0.003 sec
     gradient                   ...        0 min,  0.001 sec
 * total energy  :   -17.9314347 Eh     change       -0.1817012E-04 Eh
   gradient norm :     0.0010105 Eh/α   predicted    -0.1488288E-04 ( -18.09%)
   displ. norm   :     0.0634718 α      lambda       -0.7104585E-05
   maximum displ.:     0.0576441 α      in ANC's #1, #4, #2, ...

........................................................................
.............................. CYCLE   12 ..............................
........................................................................

 iter      E             dE          RMSdq      gap      omega  full diag
   1    -18.2249319 -0.182249E+02  0.249E-02    5.23       0.0  T
   2    -18.2249319 -0.457857E-07  0.147E-02    5.23       1.7  T
   3    -18.2249319 -0.491785E-08  0.843E-04    5.23      29.7  T
   4    -18.2249319 -0.464858E-08  0.326E-04    5.23      76.7  T
     SCC iter.                  ...        0 min,  0.002 sec
     gradient                   ...        0 min,  0.001 sec
 * total energy  :   -17.9314371 Eh     change       -0.2424897E-05 Eh
   gradient norm :     0.0006385 Eh/α   predicted    -0.3558394E-05 (  46.74%)
   displ. norm   :     0.0201907 α      lambda       -0.2170272E-05
   maximum displ.:     0.0141489 α      in ANC's #1, #2, #4, ...

   *** GEOMETRY OPTIMIZATION CONVERGED AFTER 12 ITERATIONS ***

------------------------------------------------------------------------
 total energy gain   :        -0.0136597 Eh       -8.5716 kcal/mol
 total RMSD          :         0.4902051 a0        0.2594 Å
 total power (kW/mol):        -2.9886226 (step) -511.9062 (real)
------------------------------------------------------------------------

 ANCopt (total)                0 d,  0 h,  0 min,  0.070 sec
 optimizer setup                ...        0 min,  0.000 sec (  0.254%)
 model hessian                  ...        0 min,  0.007 sec ( 10.466%)
 ANC generation                 ...        0 min,  0.000 sec (  0.581%)
 coordinate transformation      ...        0 min,  0.000 sec (  0.104%)
 single point calculation       ...        0 min,  0.056 sec ( 79.878%)
 optimization log               ...        0 min,  0.002 sec (  2.787%)
 hessian update                 ...        0 min,  0.000 sec (  0.241%)
 rational function              ...        0 min,  0.002 sec (  2.616%)

================
 final structure:
================
16
 xtb: 6.6.1 (8d0f1dd)
C            0.24795576361053        1.48537643061274       -0.31436320887713
C           -1.01042935110173        1.15711684064016       -0.07547827610546
C           -1.45463519104703       -0.23520834221728        0.25287935211689
C           -0.27222451135164       -1.11474711947474        0.65086608718840
C            0.86364684209862       -0.93402206873120       -0.35005565182818
C            1.37774053652266        0.50203512599233       -0.29070600580265
H            0.51554242677926        2.51054355652161       -0.53443581138630
H           -1.79095103660986        1.90506083396356       -0.12087864997166
H           -2.19148958188687       -0.20273485638217        1.05991182461006
H           -1.95756115854435       -0.66172288761135       -0.62174513442070
H            0.07677055393276       -0.82356823617830        1.64360890481666
H           -0.58102080046890       -2.16110949313715        0.69510673126523
H            1.67612338366185       -1.63156936391181       -0.13705959550699
H            0.49201396480241       -1.14493632220276       -1.35526204313526
H            1.95765367434188        0.65177062377191        0.62674648630849
H            2.05096448526055        0.69801527834449       -1.12913500927134

 Bond Distances (Angstroems)
 ---------------------------
C1-C2=1.3223         C1-C6=1.4980         C1-H7=1.0821         C2-C1=1.3223         C2-C3=1.4979         C2-H8=1.0820         
C3-C2=1.4979         C3-C4=1.5265         C3-H9=1.0933         C3-H10=1.0954        C4-C3=1.5265         C4-C5=1.5247         
C4-H11=1.0918        C4-H12=1.0919        C5-C4=1.5247         C5-C6=1.5265         C5-H13=1.0918        C5-H14=1.0923        
C6-C1=1.4980         C6-C5=1.5265         C6-H15=1.0956        C6-H16=1.0930        H7-C1=1.0821         H8-C2=1.0820         
H9-C3=1.0933         H10-C3=1.0954        H11-C4=1.0918        H12-C4=1.0919        H13-C5=1.0918        H14-C5=1.0923        
H15-C6=1.0956        H16-C6=1.0930        
 C  H  Rav=1.0909 sigma=0.0046  Rmin=1.0820  Rmax=1.0956    10
 C  C  Rav=1.4826 sigma=0.0728  Rmin=1.3223  Rmax=1.5265     6

 selected bond angles (degree)
 --------------------
C6-C1-C2=123.50                H7-C1-C2=120.48                H7-C1-C6=116.01                C3-C2-C1=123.55                
H8-C2-C1=120.49                H8-C2-C3=115.96                C4-C3-C2=111.29                H9-C3-C2=109.52                
H9-C3-C4=110.29                H10-C3-C2=108.85               H10-C3-C4=109.85               H10-C3-H9=106.95               
C5-C4-C3=109.73                H11-C4-C3=109.33               H11-C4-C5=109.10               H12-C4-C3=110.10               
H12-C4-C5=110.54               H12-C4-H11=108.01              C6-C5-C4=109.69                H13-C5-C4=110.52               
H13-C5-C6=110.05               H14-C5-C4=109.13               H14-C5-C6=109.39               H14-C5-H13=108.02              
C5-C6-C1=111.28                H15-C6-C1=108.83               H15-C6-C5=109.84               H16-C6-C1=109.56               
H16-C6-C5=110.26               H16-C6-H15=106.97              

 selected dihedral angles (degree)
 ---------------------------------
C3-C2-C1-C6=  0.28            C3-C2-C1-H7=180.80            H8-C2-C1-C6=180.97            H8-C2-C1-H7=  1.50            
C4-C3-C2-C1= 15.69            C4-C3-C2-H8=195.02            H9-C3-C2-C1=137.89            H9-C3-C2-H8=317.22            
H10-C3-C2-C1=254.50           H10-C3-C2-H8= 73.83           C5-C4-C3-C2=312.95            C5-C4-C3-H9=191.19            
C5-C4-C3-H10= 73.56           H11-C4-C3-C2= 72.56           H11-C4-C3-H9=310.81           H11-C4-C3-H10=193.17          
H12-C4-C3-C2=191.06           H12-C4-C3-H9= 69.31           H12-C4-C3-H10=311.67          C6-C5-C4-C3= 64.27            
C6-C5-C4-H11=304.51           C6-C5-C4-H12=185.89           H13-C5-C4-C3=185.78           H13-C5-C4-H11= 66.03          
H13-C5-C4-H12=307.40          H14-C5-C4-C3=304.44           H14-C5-C4-H11=184.68          H14-C5-C4-H12= 66.06          
C5-C6-C1-C2= 15.87            C5-C6-C1-H7=195.37            H15-C6-C1-C2=254.70           H15-C6-C1-H7= 74.20           
H16-C6-C1-C2=138.07           H16-C6-C1-H7=317.57           C1-C6-C5-C4=312.79            C1-C6-C5-H13=190.99           
C1-C6-C5-H14= 72.46           H15-C6-C5-C4= 73.37           H15-C6-C5-H13=311.57          H15-C6-C5-H14=193.04          
H16-C6-C5-C4=191.00           H16-C6-C5-H13= 69.20          H16-C6-C5-H14=310.68          
           -------------------------------------------------
          |                Final Singlepoint                |
           -------------------------------------------------

          ...................................................
          :                      SETUP                      :
          :.................................................:
          :  # basis functions                  34          :
          :  # atomic orbitals                  34          :
          :  # shells                           22          :
          :  # electrons                        34          :
          :  max. iterations                   250          :
          :  Hamiltonian                  GFN2-xTB          :
          :  restarted?                      false          :
          :  GBSA solvation                  false          :
          :  PC potential                    false          :
          :  electronic temp.          300.0000000     K    :
          :  accuracy                    1.0000000          :
          :  -> integral cutoff          0.2500000E+02      :
          :  -> integral neglect         0.1000000E-07      :
          :  -> SCF convergence          0.1000000E-05 Eh   :
          :  -> wf. convergence          0.1000000E-03 e    :
          :  Broyden damping             0.4000000          :
          ...................................................

 iter      E             dE          RMSdq      gap      omega  full diag
   1    -18.2249319 -0.182249E+02  0.179E-04    5.23       0.0  T
   2    -18.2249319 -0.308447E-10  0.147E-04    5.23     170.4  T
   3    -18.2249319 -0.223110E-09  0.536E-05    5.23     466.3  T

   *** convergence criteria satisfied after 3 iterations ***

         #    Occupation            Energy/Eh            Energy/eV
      -------------------------------------------------------------
         1        2.0000           -0.6302648             -17.1504
       ...           ...                  ...                  ...
        11        2.0000           -0.4659513             -12.6792
        12        2.0000           -0.4638040             -12.6207
        13        2.0000           -0.4592921             -12.4980
        14        2.0000           -0.4268932             -11.6164
        15        2.0000           -0.4165930             -11.3361
        16        2.0000           -0.4073445             -11.0844
        17        2.0000           -0.3806969             -10.3593 (HOMO)
        18                         -0.1883677              -5.1257 (LUMO)
        19                          0.0983851               2.6772
        20                          0.1024381               2.7875
        21                          0.1096333               2.9833
        22                          0.1235011               3.3606
       ...                                ...                  ...
        34                          0.6417713              17.4635
      -------------------------------------------------------------
                  HL-Gap            0.1923292 Eh            5.2335 eV
             Fermi-level           -0.2845323 Eh           -7.7425 eV

 SCC (total)                   0 d,  0 h,  0 min,  0.004 sec
 SCC setup                      ...        0 min,  0.000 sec (  4.662%)
 Dispersion                     ...        0 min,  0.000 sec (  1.979%)
 classical contributions        ...        0 min,  0.000 sec (  0.344%)
 integral evaluation            ...        0 min,  0.000 sec (  8.865%)
 iterations                     ...        0 min,  0.002 sec ( 50.923%)
 molecular gradient             ...        0 min,  0.001 sec ( 25.239%)
 printout                       ...        0 min,  0.000 sec (  7.358%)

         :::::::::::::::::::::::::::::::::::::::::::::::::::::
         ::                     SUMMARY                     ::
         :::::::::::::::::::::::::::::::::::::::::::::::::::::
         :: total energy             -17.931437128491 Eh    ::
         :: gradient norm              0.000638214091 Eh/a0 ::
         :: HOMO-LUMO gap              5.233543576952 eV    ::
         ::.................................................::
         :: SCC energy               -18.224931930974 Eh    ::
         :: -> isotropic ES            0.002329491784 Eh    ::
         :: -> anisotropic ES          0.004499549556 Eh    ::
         :: -> anisotropic XC          0.011485853454 Eh    ::
         :: -> dispersion             -0.010086391358 Eh    ::
         :: repulsion energy           0.293474700188 Eh    ::
         :: add. restraining           0.000000000000 Eh    ::
         :: total charge              -0.000000000000 e     ::
         :::::::::::::::::::::::::::::::::::::::::::::::::::::

           -------------------------------------------------
          |                Property Printout                |
           -------------------------------------------------

    * Orbital Energies and Occupations

         #    Occupation            Energy/Eh            Energy/eV
      -------------------------------------------------------------
         1        2.0000           -0.6302648             -17.1504
       ...           ...                  ...                  ...
         5        2.0000           -0.5639129             -15.3449
         6        2.0000           -0.5292736             -14.4023
         7        2.0000           -0.5214682             -14.1899
         8        2.0000           -0.4938921             -13.4395
         9        2.0000           -0.4910203             -13.3613
        10        2.0000           -0.4719925             -12.8436
        11        2.0000           -0.4659513             -12.6792
        12        2.0000           -0.4638040             -12.6207
        13        2.0000           -0.4592921             -12.4980
        14        2.0000           -0.4268932             -11.6164
        15        2.0000           -0.4165930             -11.3361
        16        2.0000           -0.4073445             -11.0844
        17        2.0000           -0.3806969             -10.3593 (HOMO)
        18                         -0.1883677              -5.1257 (LUMO)
        19                          0.0983851               2.6772
        20                          0.1024381               2.7875
        21                          0.1096333               2.9833
        22                          0.1235011               3.3606
        23                          0.1262556               3.4356
        24                          0.1470441               4.0013
        25                          0.1564749               4.2579
        26                          0.1927459               5.2449
        27                          0.1974857               5.3739
        28                          0.2364747               6.4348
       ...                                ...                  ...
        34                          0.6417713              17.4635
      -------------------------------------------------------------
                  HL-Gap            0.1923292 Eh            5.2335 eV
             Fermi-level           -0.2845323 Eh           -7.7425 eV

     #   Z          covCN         q      C6AA      α(0)
     1   6 C        2.892    -0.041    29.019     8.832
     2   6 C        2.892    -0.041    29.019     8.832
     3   6 C        3.809    -0.053    21.519     6.603
     4   6 C        3.807    -0.054    21.537     6.606
     5   6 C        3.807    -0.054    21.536     6.606
     6   6 C        3.809    -0.053    21.519     6.603
     7   1 H        0.925     0.021     2.724     2.581
     8   1 H        0.925     0.021     2.724     2.581
     9   1 H        0.924     0.033     2.548     2.496
    10   1 H        0.924     0.037     2.489     2.467
    11   1 H        0.924     0.033     2.550     2.497
    12   1 H        0.924     0.025     2.658     2.549
    13   1 H        0.924     0.025     2.657     2.549
    14   1 H        0.924     0.032     2.551     2.498
    15   1 H        0.924     0.037     2.490     2.467
    16   1 H        0.924     0.033     2.548     2.496

 Mol. C6AA /au·bohr⁶  :       2058.035333
 Mol. C8AA /au·bohr⁸  :      45541.878409
 Mol. α(0) /au        :         69.265836


Wiberg/Mayer (AO) data.
largest (>0.10) Wiberg bond orders for each atom

 ---------------------------------------------------------------------------
     #   Z sym  total        # sym  WBO       # sym  WBO       # sym  WBO
 ---------------------------------------------------------------------------
     1   6 C    3.991 --     2 C    1.929     6 C    1.024     7 H    0.968
     2   6 C    3.991 --     1 C    1.929     3 C    1.024     8 H    0.968
     3   6 C    3.999 --     2 C    1.024     4 C    1.007     9 H    0.968
                            10 H    0.959
     4   6 C    3.999 --     5 C    1.009     3 C    1.007    12 H    0.979
                            11 H    0.979
     5   6 C    3.999 --     4 C    1.009     6 C    1.007    13 H    0.979
                            14 H    0.979
     6   6 C    3.999 --     1 C    1.024     5 C    1.007    16 H    0.968
                            15 H    0.959
     7   1 H    1.000 --     1 C    0.968
     8   1 H    1.000 --     2 C    0.968
     9   1 H    0.999 --     3 C    0.968
    10   1 H    0.999 --     3 C    0.959
    11   1 H    0.999 --     4 C    0.979
    12   1 H    0.999 --     4 C    0.979
    13   1 H    0.999 --     5 C    0.979
    14   1 H    0.999 --     5 C    0.979
    15   1 H    0.999 --     6 C    0.959
    16   1 H    0.999 --     6 C    0.968
 ---------------------------------------------------------------------------

Topologies differ in total number of bonds
Writing topology from bond orders to xtbtopo.mol

molecular dipole:
                 x           y           z       tot (Debye)
 q only:        0.035      -0.122       0.018
   full:        0.036      -0.124       0.018       0.331
molecular quadrupole (traceless):
                xx          xy          yy          xz          yz          zz
 q only:        0.737       0.324      -0.383      -0.158      -0.029      -0.353
  q+dip:        1.419       0.623      -0.633      -0.109      -0.033      -0.786
   full:        0.985       0.475      -0.570      -0.074       0.018      -0.416

           -------------------------------------------------
          |                Geometry Summary                 |
           -------------------------------------------------

      molecular mass/u    :       82.1438229
   center of mass at/Å    :       -0.0332100       0.1152706      -0.0169920
  moments of inertia/u·Å² :        0.1050571E+03   0.1096322E+03   0.1938193E+03
rotational constants/cm⁻¹ :        0.1604617E+00   0.1537654E+00   0.8697600E-01

 * 14 selected distances

     #   Z          #   Z                                           value/Å
     1   6 C        2   6 C                                       1.3222533
     3   6 C        4   6 C                                       1.5264591 (max)
     4   6 C        5   6 C                                       1.5247000
     5   6 C        6   6 C                                       1.5264585
     1   6 C        7   1 H                                       1.0821287
     2   6 C        8   1 H                                       1.0819869 (min)
     3   6 C        9   1 H                                       1.0933026
     3   6 C       10   1 H                                       1.0953618
     4   6 C       11   1 H                                       1.0918430
     4   6 C       12   1 H                                       1.0918731
     5   6 C       13   1 H                                       1.0918140
     5   6 C       14   1 H                                       1.0922618
     6   6 C       15   1 H                                       1.0956456
     6   6 C       16   1 H                                       1.0929786

 * 2 distinct bonds (by element types)

   Z      Z             #   av. dist./Å        max./Å        min./Å
   1 H    6 C          10     1.0909196     1.0956456     1.0819869
   6 C    6 C           4     1.4749677     1.5264591     1.3222533


optimized geometry written to: xtbopt.xyz


           -------------------------------------------------
          | TOTAL ENERGY              -17.931437128491 Eh   |
          | GRADIENT NORM               0.000638214091 Eh/α |
          | HOMO-LUMO GAP               5.233543576952 eV   |
           -------------------------------------------------

------------------------------------------------------------------------
 * finished run on 2025/05/23 at 11:04:01.685     
------------------------------------------------------------------------
 total:
 * wall-time:     0 d,  0 h,  0 min,  0.116 sec
 *  cpu-time:     0 d,  0 h,  0 min,  1.479 sec
 * ratio c/w:    12.757 speedup
 SCF:
 * wall-time:     0 d,  0 h,  0 min,  0.030 sec
 *  cpu-time:     0 d,  0 h,  0 min,  0.285 sec
 * ratio c/w:     9.519 speedup
 ANC optimizer:
 * wall-time:     0 d,  0 h,  0 min,  0.075 sec
 *  cpu-time:     0 d,  0 h,  0 min,  1.085 sec
 * ratio c/w:    14.395 speedup

