      -----------------------------------------------------------      
     |                   =====================                   |     
     |                           x T B                           |     
     |                   =====================                   |     
     |                         S. Grimme                         |     
     |          Mulliken Center for Theoretical Chemistry        |     
     |                    University of Bonn                     |     
      -----------------------------------------------------------      

   * xtb version 6.6.1 (8d0f1dd) compiled by 'conda@1efc2f54142f' on 2023-08-01

   xtb is free software: you can redistribute it and/or modify it under
   the terms of the GNU Lesser General Public License as published by
   the Free Software Foundation, either version 3 of the License, or
   (at your option) any later version.
   
   xtb is distributed in the hope that it will be useful,
   but WITHOUT ANY WARRANTY; without even the implied warranty of
   MERCHANTABILITY or FITNESS FOR A PARTICULAR PURPOSE.  See the
   GNU Lesser General Public License for more details.
   
   Cite this work as:
   * C. Bannwarth, E. Caldeweyher, S. Ehlert, A. Hansen, P. Pracht,
     J. Seibert, S. Spicher, S. Grimme, WIREs Comput. Mol. Sci., 2020, 11,
     e01493. DOI: 10.1002/wcms.1493
   
   for GFN2-xTB:
   * C. Bannwarth, S. Ehlert and S. Grimme., J. Chem. Theory Comput., 2019,
     15, 1652-1671. DOI: 10.1021/acs.jctc.8b01176
   for GFN1-xTB:
   * S. Grimme, C. Bannwarth, P. Shushkov, J. Chem. Theory Comput., 2017,
     13, 1989-2009. DOI: 10.1021/acs.jctc.7b00118
   for GFN0-xTB:
   * P. Pracht, E. Caldeweyher, S. Ehlert, S. Grimme, ChemRxiv, 2019, preprint.
     DOI: 10.26434/chemrxiv.8326202.v1
   for GFN-FF:
   * S. Spicher and S. Grimme, Angew. Chem. Int. Ed., 2020, 59, 15665-15673.
     DOI: 10.1002/anie.202004239
   
   for ALPB and GBSA implicit solvation:
   * S. Ehlert, M. Stahn, S. Spicher, S. Grimme, J. Chem. Theory Comput.,
     2021, 17, 4250-4261. DOI: 10.1021/acs.jctc.1c00471
   
   for DFT-D4:
   * E. Caldeweyher, C. Bannwarth and S. Grimme, J. Chem. Phys., 2017,
     147, 034112. DOI: 10.1063/1.4993215
   * E. Caldeweyher, S. Ehlert, A. Hansen, H. Neugebauer, S. Spicher,
     C. Bannwarth and S. Grimme, J. Chem. Phys., 2019, 150, 154122.
     DOI: 10.1063/1.5090222
   * E. Caldeweyher, J.-M. Mewes, S. Ehlert and S. Grimme, Phys. Chem. Chem. Phys.
     2020, 22, 8499-8512. DOI: 10.1039/D0CP00502A
   
   for sTDA-xTB:
   * S. Grimme and C. Bannwarth, J. Chem. Phys., 2016, 145, 054103.
     DOI: 10.1063/1.4959605
   
   in the mass-spec context:
   * V. Asgeirsson, C. Bauer and S. Grimme, Chem. Sci., 2017, 8, 4879.
     DOI: 10.1039/c7sc00601b
   * J. Koopman and S. Grimme, ACS Omega 2019, 4, 12, 15120-15133.
     DOI: 10.1021/acsomega.9b02011
   
   for metadynamics refer to:
   * S. Grimme, J. Chem. Theory Comput., 2019, 155, 2847-2862
     DOI: 10.1021/acs.jctc.9b00143
   
   for SPH calculations refer to:
   * S. Spicher and S. Grimme, J. Chem. Theory Comput., 2021, 17, 1701-1714
     DOI: 10.1021/acs.jctc.0c01306
   
   with help from (in alphabetical order)
   P. Atkinson, C. Bannwarth, F. Bohle, G. Brandenburg, E. Caldeweyher
   M. Checinski, S. Dohm, S. Ehlert, S. Ehrlich, I. Gerasimov, C. Hölzer
   A. Katbashev, J. Koopman, C. Lavigne, S. Lehtola, F. März, M. Müller,
   F. Musil, H. Neugebauer, J. Pisarek, C. Plett, P. Pracht, F. Pultar,
   J. Seibert, P. Shushkov, S. Spicher, M. Stahn, M. Steiner, T. Strunk,
   J. Stückrath, T. Rose, and J. Unsleber
   
 * started run on 2025/05/23 at 11:03:28.918     

           -------------------------------------------------
          |                Calculation Setup                |
           -------------------------------------------------

          program call               : /gpfs/fs1/home/copan/code/autode-practice/.pixi/envs/default/bin/xtb r0_C4H6_conf0_opt_xtb.xyz --chrg 0 --uhf 0 --opt
          hostname                   : beboplogin4.lcrc.anl.gov
          coordinate file            : r0_C4H6_conf0_opt_xtb.xyz
          omp threads                :                     8

   ID    Z sym.   atoms
    1    6 C      1-4
    2    1 H      5-10

           -------------------------------------------------
          |                 G F N 2 - x T B                 |
           -------------------------------------------------

        Reference                      10.1021/acs.jctc.8b01176
      * Hamiltonian:
        H0-scaling (s, p, d)           1.850000    2.230000    2.230000
        zeta-weighting                 0.500000
      * Dispersion:
        s8                             2.700000
        a1                             0.520000
        a2                             5.000000
        s9                             5.000000
      * Repulsion:
        kExp                           1.500000    1.000000
        rExp                           1.000000
      * Coulomb:
        alpha                          2.000000
        third order                    shell-resolved
        anisotropic                    true
        a3                             3.000000
        a5                             4.000000
        cn-shift                       1.200000
        cn-exp                         4.000000
        max-rad                        5.000000


          ...................................................
          :                      SETUP                      :
          :.................................................:
          :  # basis functions                  22          :
          :  # atomic orbitals                  22          :
          :  # shells                           14          :
          :  # electrons                        22          :
          :  max. iterations                   250          :
          :  Hamiltonian                  GFN2-xTB          :
          :  restarted?                      false          :
          :  GBSA solvation                  false          :
          :  PC potential                    false          :
          :  electronic temp.          300.0000000     K    :
          :  accuracy                    1.0000000          :
          :  -> integral cutoff          0.2500000E+02      :
          :  -> integral neglect         0.1000000E-07      :
          :  -> SCF convergence          0.1000000E-05 Eh   :
          :  -> wf. convergence          0.1000000E-03 e    :
          :  Broyden damping             0.4000000          :
          ...................................................

 iter      E             dE          RMSdq      gap      omega  full diag
   1    -11.7599456 -0.117599E+02  0.488E+00    3.85       0.0  T
   2    -11.7772626 -0.173170E-01  0.293E+00    3.84       1.0  T
   3    -11.7747838  0.247881E-02  0.926E-01    3.84       1.0  T
   4    -11.7768164 -0.203260E-02  0.527E-01    3.83       1.0  T
   5    -11.7787888 -0.197240E-02  0.863E-02    3.83       1.0  T
   6    -11.7788205 -0.317034E-04  0.457E-02    3.83       1.0  T
   7    -11.7788235 -0.295237E-05  0.500E-03    3.83       6.3  T
   8    -11.7788236 -0.964473E-07  0.138E-03    3.83      23.0  T
   9    -11.7788236 -0.173158E-08  0.489E-04    3.83      64.7  T
  10    -11.7788236 -0.414198E-09  0.870E-05    3.83     363.6  T

   *** convergence criteria satisfied after 10 iterations ***

         #    Occupation            Energy/Eh            Energy/eV
      -------------------------------------------------------------
         1        2.0000           -0.6244519             -16.9922
       ...           ...                  ...                  ...
         5        2.0000           -0.5025724             -13.6757
         6        2.0000           -0.4966077             -13.5134
         7        2.0000           -0.4521729             -12.3043
         8        2.0000           -0.4486185             -12.2075
         9        2.0000           -0.4472605             -12.1706
        10        2.0000           -0.4282444             -11.6531
        11        2.0000           -0.3865660             -10.5190 (HOMO)
        12                         -0.2459025              -6.6913 (LUMO)
        13                         -0.1441371              -3.9222
        14                          0.1036191               2.8196
        15                          0.1323064               3.6002
        16                          0.1607962               4.3755
       ...                                ...                  ...
        22                          0.6711813              18.2638
      -------------------------------------------------------------
                  HL-Gap            0.1406634 Eh            3.8276 eV
             Fermi-level           -0.3162342 Eh           -8.6052 eV

 SCC (total)                   0 d,  0 h,  0 min,  0.034 sec
 SCC setup                      ...        0 min,  0.000 sec (  1.321%)
 Dispersion                     ...        0 min,  0.000 sec (  0.446%)
 classical contributions        ...        0 min,  0.000 sec (  0.699%)
 integral evaluation            ...        0 min,  0.001 sec (  1.703%)
 iterations                     ...        0 min,  0.031 sec ( 91.648%)
 molecular gradient             ...        0 min,  0.001 sec (  3.044%)
 printout                       ...        0 min,  0.000 sec (  1.053%)

         :::::::::::::::::::::::::::::::::::::::::::::::::::::
         ::                     SUMMARY                     ::
         :::::::::::::::::::::::::::::::::::::::::::::::::::::
         :: total energy             -11.549944193411 Eh    ::
         :: gradient norm              0.041526589909 Eh/a0 ::
         :: HOMO-LUMO gap              3.827646180569 eV    ::
         ::.................................................::
         :: SCC energy               -11.778823560127 Eh    ::
         :: -> isotropic ES            0.001732785491 Eh    ::
         :: -> anisotropic ES          0.002647521508 Eh    ::
         :: -> anisotropic XC          0.012062035261 Eh    ::
         :: -> dispersion             -0.004420041520 Eh    ::
         :: repulsion energy           0.228879321843 Eh    ::
         :: add. restraining           0.000000000000 Eh    ::
         :: total charge              -0.000000000000 e     ::
         :::::::::::::::::::::::::::::::::::::::::::::::::::::

      ----------------------------------------------------------- 
     |                   =====================                   |
     |                        A N C O P T                        |
     |                   =====================                   |
     |               Approximate Normal Coordinate               |
     |                Rational Function Optimizer                |
      ----------------------------------------------------------- 

          ...................................................
          :                      SETUP                      :
          :.................................................:
          :   optimization level            normal          :
          :   max. optcycles                   200          :
          :   ANC micro-cycles                  20          :
          :   degrees of freedom                24          :
          :.................................................:
          :   RF solver                   davidson          :
          :   write xtbopt.log                true          :
          :   linear?                        false          :
          :   energy convergence         0.5000000E-05 Eh   :
          :   grad. convergence          0.1000000E-02 Eh/α :
          :   maxmium RF displ.          1.0000000          :
          :   Hlow (freq-cutoff)         0.1000000E-01      :
          :   Hmax (freq-cutoff)         5.0000000          :
          :   S6 in model hess.         20.0000000          :
          ...................................................

generating ANC from model Hessian ...
Using Lindh-Hessian (1995)
 Shifting diagonal of input Hessian by    4.1997839898596165E-003
 Lowest  eigenvalues of input Hessian
    0.000000    0.000000    0.000000    0.000000    0.000000    0.000000
    0.010000    0.013159    0.021053    0.021329    0.044367    0.047738
    0.049536    0.095475    0.102149    0.108257    0.121450    0.156358
 Highest eigenvalues
    0.913901    1.182839    1.376190    1.668111    1.781161    2.044864


........................................................................
.............................. CYCLE    1 ..............................
........................................................................

 iter      E             dE          RMSdq      gap      omega  full diag
   1    -11.7788236 -0.117788E+02  0.121E-05    3.83       0.0  T
   2    -11.7788236 -0.325073E-12  0.556E-06    3.83    5685.7  T
   3    -11.7788236  0.124345E-13  0.286E-06    3.83   11065.7  T
     SCC iter.                  ...        0 min,  0.001 sec
     gradient                   ...        0 min,  0.001 sec
 * total energy  :   -11.5499442 Eh     change       -0.2730260E-11 Eh
   gradient norm :     0.0415268 Eh/α   predicted     0.0000000E+00 (-100.00%)
   displ. norm   :     0.1550507 α      lambda       -0.3508014E-02
   maximum displ.:     0.0839059 α      in ANC's #7, #9, #10, ...

........................................................................
.............................. CYCLE    2 ..............................
........................................................................

 iter      E             dE          RMSdq      gap      omega  full diag
   1    -11.7830022 -0.117830E+02  0.286E-01    3.77       0.0  T
   2    -11.7830083 -0.609538E-05  0.171E-01    3.77       1.0  T
   3    -11.7829857  0.225485E-04  0.543E-02    3.77       1.0  T
   4    -11.7830101 -0.243547E-04  0.120E-02    3.77       2.6  T
   5    -11.7830108 -0.723718E-06  0.366E-03    3.77       8.6  T
   6    -11.7830108  0.137591E-09  0.235E-03    3.77      13.4  T
   7    -11.7830108 -0.279798E-07  0.306E-04    3.77     103.3  T
   8    -11.7830108 -0.593339E-10  0.985E-05    3.77     321.2  T
     SCC iter.                  ...        0 min,  0.002 sec
     gradient                   ...        0 min,  0.000 sec
 * total energy  :   -11.5522696 Eh     change       -0.2325451E-02 Eh
   gradient norm :     0.0162726 Eh/α   predicted    -0.1796174E-02 ( -22.76%)
   displ. norm   :     0.0919055 α      lambda       -0.7463915E-03
   maximum displ.:     0.0517120 α      in ANC's #9, #7, #11, ...

........................................................................
.............................. CYCLE    3 ..............................
........................................................................

 iter      E             dE          RMSdq      gap      omega  full diag
   1    -11.7851257 -0.117851E+02  0.170E-01    3.77       0.0  T
   2    -11.7851270 -0.137062E-05  0.100E-01    3.77       1.0  T
   3    -11.7851217  0.531114E-05  0.271E-02    3.77       1.2  T
   4    -11.7851276 -0.588025E-05  0.459E-03    3.77       6.9  T
   5    -11.7851277 -0.938766E-07  0.162E-03    3.77      19.5  T
   6    -11.7851277  0.966356E-09  0.114E-03    3.77      27.6  T
   7    -11.7851277 -0.626918E-08  0.187E-04    3.77     169.0  T
   8    -11.7851277 -0.552376E-10  0.696E-05    3.77     454.6  T
     SCC iter.                  ...        0 min,  0.002 sec
     gradient                   ...        0 min,  0.001 sec
 * total energy  :   -11.5526769 Eh     change       -0.4072793E-03 Eh
   gradient norm :     0.0053306 Eh/α   predicted    -0.3763489E-03 (  -7.59%)
   displ. norm   :     0.0176476 α      lambda       -0.3327480E-04
   maximum displ.:     0.0109668 α      in ANC's #4, #7, #9, ...

........................................................................
.............................. CYCLE    4 ..............................
........................................................................

 iter      E             dE          RMSdq      gap      omega  full diag
   1    -11.7851228 -0.117851E+02  0.248E-02    3.78       0.0  T
   2    -11.7851228 -0.349436E-07  0.145E-02    3.78       2.2  T
   3    -11.7851228  0.625344E-07  0.318E-03    3.78       9.9  T
   4    -11.7851228 -0.725650E-07  0.595E-04    3.78      53.2  T
   5    -11.7851228 -0.129129E-08  0.375E-04    3.78      84.4  T
     SCC iter.                  ...        0 min,  0.001 sec
     gradient                   ...        0 min,  0.001 sec
 * total energy  :   -11.5526985 Eh     change       -0.2157919E-04 Eh
   gradient norm :     0.0018190 Eh/α   predicted    -0.1664256E-04 ( -22.88%)
   displ. norm   :     0.0143028 α      lambda       -0.6269667E-05
   maximum displ.:     0.0111559 α      in ANC's #4, #7, #11, ...

........................................................................
.............................. CYCLE    5 ..............................
........................................................................

 iter      E             dE          RMSdq      gap      omega  full diag
   1    -11.7850402 -0.117850E+02  0.160E-02    3.79       0.0  T
   2    -11.7850402 -0.153008E-07  0.948E-03    3.79       3.3  T
   3    -11.7850402  0.198359E-07  0.165E-03    3.79      19.2  T
   4    -11.7850402 -0.236875E-07  0.491E-04    3.79      64.4  T
   5    -11.7850402 -0.991497E-09  0.122E-04    3.79     259.3  T
     SCC iter.                  ...        0 min,  0.001 sec
     gradient                   ...        0 min,  0.000 sec
 * total energy  :   -11.5527014 Eh     change       -0.2930985E-05 Eh
   gradient norm :     0.0010336 Eh/α   predicted    -0.3134546E-05 (   6.95%)
   displ. norm   :     0.0033231 α      lambda       -0.9424584E-06
   maximum displ.:     0.0018862 α      in ANC's #5, #7, #9, ...

........................................................................
.............................. CYCLE    6 ..............................
........................................................................

 iter      E             dE          RMSdq      gap      omega  full diag
   1    -11.7850580 -0.117851E+02  0.551E-03    3.78       0.0  T
   2    -11.7850580 -0.208281E-08  0.328E-03    3.78       9.7  T
   3    -11.7850580  0.523719E-08  0.874E-04    3.78      36.2  T
   4    -11.7850580 -0.600840E-08  0.150E-04    3.78     211.3  T
     SCC iter.                  ...        0 min,  0.001 sec
     gradient                   ...        0 min,  0.001 sec
 * total energy  :   -11.5527021 Eh     change       -0.6306379E-06 Eh
   gradient norm :     0.0001851 Eh/α   predicted    -0.4699102E-06 ( -25.49%)
   displ. norm   :     0.0037661 α      lambda       -0.3587008E-06
   maximum displ.:     0.0030324 α      in ANC's #5, #6, #1, ...

   *** GEOMETRY OPTIMIZATION CONVERGED AFTER 6 ITERATIONS ***

------------------------------------------------------------------------
 total energy gain   :        -0.0027579 Eh       -1.7306 kcal/mol
 total RMSD          :         0.0817963 a0        0.0433 Å
 total power (kW/mol):        -1.2067984 (step)  -93.1141 (real)
------------------------------------------------------------------------

 ANCopt (total)                0 d,  0 h,  0 min,  0.078 sec
 optimizer setup                ...        0 min,  0.000 sec (  0.306%)
 model hessian                  ...        0 min,  0.001 sec (  0.893%)
 ANC generation                 ...        0 min,  0.000 sec (  0.417%)
 coordinate transformation      ...        0 min,  0.000 sec (  0.039%)
 single point calculation       ...        0 min,  0.015 sec ( 19.215%)
 optimization log               ...        0 min,  0.001 sec (  0.960%)
 hessian update                 ...        0 min,  0.000 sec (  0.119%)
 rational function              ...        0 min,  0.060 sec ( 76.632%)

================
 final structure:
================
10
 xtb: 6.6.1 (8d0f1dd)
C           -1.82205215253824        0.11862177179115       -0.13395482462690
C           -0.55338054419949        0.46363697456061       -0.32433862808890
C            0.55327949972455       -0.46288176712021       -0.22215784843082
C            1.82216679138219       -0.11864378595487       -0.41236409697159
H           -2.62726010909751        0.82825203417930       -0.21705990651497
H           -2.09979899837769       -0.89365552197605        0.11179444535816
H           -0.29684454824309        1.48592108669136       -0.57139949832901
H            0.29648344991420       -1.48518028838436        0.02478895157446
H            2.10084019182958        0.89319957304770       -0.65862428534669
H            2.62656641960550       -0.82917007683464       -0.32938430862374

 Bond Distances (Angstroems)
 ---------------------------
C1-C2=1.3285         C1-H5=1.0765         C1-H6=1.0781         C2-C1=1.3285         C2-C3=1.4469         C2-H7=1.0826         
C3-C2=1.4469         C3-C4=1.3284         C3-H8=1.0826         C4-C3=1.3284         C4-H9=1.0780         C4-H10=1.0765        
H5-C1=1.0765         H6-C1=1.0781         H7-C2=1.0826         H8-C3=1.0826         H9-C4=1.0780         H10-C4=1.0765        
 C  H  Rav=1.0790 sigma=0.0026  Rmin=1.0765  Rmax=1.0826     6
 C  C  Rav=1.3679 sigma=0.0558  Rmin=1.3284  Rmax=1.4469     3

 selected bond angles (degree)
 --------------------
H5-C1-C2=122.14                H6-C1-C2=121.50                H6-C1-H5=116.35                C3-C2-C1=123.64                
H7-C2-C1=120.28                H7-C2-C3=116.08                C4-C3-C2=123.68                H8-C3-C2=116.06                
H8-C3-C4=120.26                H9-C4-C3=121.52                H10-C4-C3=122.12               H10-C4-H9=116.36               

 selected dihedral angles (degree)
 ---------------------------------
C3-C2-C1-H5=180.06            C3-C2-C1-H6=359.96            H7-C2-C1-H5=  0.04            H7-C2-C1-H6=179.94            
C4-C3-C2-C1=180.00            C4-C3-C2-H7=  0.02            H8-C3-C2-C1=  0.00            H8-C3-C2-H7=180.01            
H9-C4-C3-C2=  0.00            H9-C4-C3-H8=180.02            H10-C4-C3-C2=179.96           H10-C4-C3-H8=  0.00           
           -------------------------------------------------
          |                Final Singlepoint                |
           -------------------------------------------------

          ...................................................
          :                      SETUP                      :
          :.................................................:
          :  # basis functions                  22          :
          :  # atomic orbitals                  22          :
          :  # shells                           14          :
          :  # electrons                        22          :
          :  max. iterations                   250          :
          :  Hamiltonian                  GFN2-xTB          :
          :  restarted?                      false          :
          :  GBSA solvation                  false          :
          :  PC potential                    false          :
          :  electronic temp.          300.0000000     K    :
          :  accuracy                    1.0000000          :
          :  -> integral cutoff          0.2500000E+02      :
          :  -> integral neglect         0.1000000E-07      :
          :  -> SCF convergence          0.1000000E-05 Eh   :
          :  -> wf. convergence          0.1000000E-03 e    :
          :  Broyden damping             0.4000000          :
          ...................................................

 iter      E             dE          RMSdq      gap      omega  full diag
   1    -11.7850580 -0.117851E+02  0.106E-04    3.78       0.0  T
   2    -11.7850580  0.600586E-11  0.860E-05    3.78     367.7  T
   3    -11.7850580 -0.606519E-10  0.290E-05    3.78    1089.3  T

   *** convergence criteria satisfied after 3 iterations ***

         #    Occupation            Energy/Eh            Energy/eV
      -------------------------------------------------------------
         1        2.0000           -0.6245555             -16.9950
       ...           ...                  ...                  ...
         5        2.0000           -0.5004869             -13.6189
         6        2.0000           -0.4998210             -13.6008
         7        2.0000           -0.4531107             -12.3298
         8        2.0000           -0.4508540             -12.2684
         9        2.0000           -0.4493994             -12.2288
        10        2.0000           -0.4255689             -11.5803
        11        2.0000           -0.3868842             -10.5277 (HOMO)
        12                         -0.2478202              -6.7435 (LUMO)
        13                         -0.1417012              -3.8559
        14                          0.1158618               3.1528
        15                          0.1269760               3.4552
        16                          0.1743302               4.7438
       ...                                ...                  ...
        22                          0.6752888              18.3755
      -------------------------------------------------------------
                  HL-Gap            0.1390640 Eh            3.7841 eV
             Fermi-level           -0.3173522 Eh           -8.6356 eV

 SCC (total)                   0 d,  0 h,  0 min,  0.002 sec
 SCC setup                      ...        0 min,  0.000 sec (  7.299%)
 Dispersion                     ...        0 min,  0.000 sec (  2.576%)
 classical contributions        ...        0 min,  0.000 sec (  0.544%)
 integral evaluation            ...        0 min,  0.000 sec (  9.004%)
 iterations                     ...        0 min,  0.001 sec ( 47.014%)
 molecular gradient             ...        0 min,  0.000 sec ( 21.546%)
 printout                       ...        0 min,  0.000 sec ( 11.107%)

         :::::::::::::::::::::::::::::::::::::::::::::::::::::
         ::                     SUMMARY                     ::
         :::::::::::::::::::::::::::::::::::::::::::::::::::::
         :: total energy             -11.552702064836 Eh    ::
         :: gradient norm              0.000185387382 Eh/a0 ::
         :: HOMO-LUMO gap              3.784125183614 eV    ::
         ::.................................................::
         :: SCC energy               -11.785058045980 Eh    ::
         :: -> isotropic ES            0.001640256019 Eh    ::
         :: -> anisotropic ES          0.002615337794 Eh    ::
         :: -> anisotropic XC          0.011779770516 Eh    ::
         :: -> dispersion             -0.004408203324 Eh    ::
         :: repulsion energy           0.232356137136 Eh    ::
         :: add. restraining           0.000000000000 Eh    ::
         :: total charge               0.000000000000 e     ::
         :::::::::::::::::::::::::::::::::::::::::::::::::::::

           -------------------------------------------------
          |                Property Printout                |
           -------------------------------------------------

    * Orbital Energies and Occupations

         #    Occupation            Energy/Eh            Energy/eV
      -------------------------------------------------------------
         1        2.0000           -0.6245555             -16.9950
         2        2.0000           -0.6062465             -16.4968
         3        2.0000           -0.5610652             -15.2674
         4        2.0000           -0.5437154             -14.7952
         5        2.0000           -0.5004869             -13.6189
         6        2.0000           -0.4998210             -13.6008
         7        2.0000           -0.4531107             -12.3298
         8        2.0000           -0.4508540             -12.2684
         9        2.0000           -0.4493994             -12.2288
        10        2.0000           -0.4255689             -11.5803
        11        2.0000           -0.3868842             -10.5277 (HOMO)
        12                         -0.2478202              -6.7435 (LUMO)
        13                         -0.1417012              -3.8559
        14                          0.1158618               3.1528
        15                          0.1269760               3.4552
        16                          0.1743302               4.7438
        17                          0.2007365               5.4623
        18                          0.2119775               5.7682
        19                          0.3722160              10.1285
        20                          0.4490732              12.2199
        21                          0.5525372              15.0353
        22                          0.6752888              18.3755
      -------------------------------------------------------------
                  HL-Gap            0.1390640 Eh            3.7841 eV
             Fermi-level           -0.3173522 Eh           -8.6356 eV

     #   Z          covCN         q      C6AA      α(0)
     1   6 C        2.841    -0.086    30.145     8.998
     2   6 C        2.894    -0.025    28.636     8.774
     3   6 C        2.894    -0.025    28.636     8.774
     4   6 C        2.841    -0.086    30.145     8.998
     5   1 H        0.926     0.036     2.502     2.474
     6   1 H        0.926     0.039     2.460     2.453
     7   1 H        0.925     0.036     2.500     2.472
     8   1 H        0.925     0.036     2.500     2.473
     9   1 H        0.926     0.039     2.460     2.453
    10   1 H        0.926     0.036     2.502     2.474

 Mol. C6AA /au·bohr⁶  :        969.533793
 Mol. C8AA /au·bohr⁸  :      22343.441939
 Mol. α(0) /au        :         50.340736


Wiberg/Mayer (AO) data.
largest (>0.10) Wiberg bond orders for each atom

 ---------------------------------------------------------------------------
     #   Z sym  total        # sym  WBO       # sym  WBO       # sym  WBO
 ---------------------------------------------------------------------------
     1   6 C    3.992 --     2 C    1.888     5 H    0.979     6 H    0.976
                             4 C    0.145
     2   6 C    3.992 --     1 C    1.888     3 C    1.118     7 H    0.964
     3   6 C    3.992 --     4 C    1.888     2 C    1.118     8 H    0.964
     4   6 C    3.992 --     3 C    1.888    10 H    0.979     9 H    0.976
                             1 C    0.145
     5   1 H    0.998 --     1 C    0.979
     6   1 H    0.998 --     1 C    0.976
     7   1 H    0.999 --     2 C    0.964
     8   1 H    0.999 --     3 C    0.964
     9   1 H    0.998 --     4 C    0.976
    10   1 H    0.998 --     4 C    0.979
 ---------------------------------------------------------------------------

Topologies differ in total number of bonds
Writing topology from bond orders to xtbtopo.mol

molecular dipole:
                 x           y           z       tot (Debye)
 q only:       -0.000      -0.000      -0.000
   full:       -0.000      -0.000      -0.000       0.001
molecular quadrupole (traceless):
                xx          xy          yy          xz          yz          zz
 q only:        0.450       0.045       0.428      -0.136      -0.307      -0.877
  q+dip:        1.911       0.341       1.843      -0.615      -1.331      -3.754
   full:        0.830       0.134       1.123      -0.295      -0.725      -1.952

           -------------------------------------------------
          |                Geometry Summary                 |
           -------------------------------------------------

      molecular mass/u    :       54.0905881
   center of mass at/Å    :        0.0000028       0.0001510      -0.2732162
  moments of inertia/u·Å² :        0.1185181E+02   0.1121858E+03   0.1240376E+03
rotational constants/cm⁻¹ :        0.1422368E+01   0.1502653E+00   0.1359075E+00

 * 8 selected distances

     #   Z          #   Z                                           value/Å
     1   6 C        2   6 C                                       1.3284613 (max)
     3   6 C        4   6 C                                       1.3284402
     1   6 C        5   1 H                                       1.0764951
     1   6 C        6   1 H                                       1.0780731
     2   6 C        7   1 H                                       1.0825501
     3   6 C        8   1 H                                       1.0825994
     4   6 C        9   1 H                                       1.0780214
     4   6 C       10   1 H                                       1.0764721 (min)

 * 2 distinct bonds (by element types)

   Z      Z             #   av. dist./Å        max./Å        min./Å
   1 H    6 C           6     1.0790352     1.0825994     1.0764721
   6 C    6 C           2     1.3284508     1.3284613     1.3284402


optimized geometry written to: xtbopt.xyz


           -------------------------------------------------
          | TOTAL ENERGY              -11.552702064836 Eh   |
          | GRADIENT NORM               0.000185387382 Eh/α |
          | HOMO-LUMO GAP               3.784125183614 eV   |
           -------------------------------------------------

------------------------------------------------------------------------
 * finished run on 2025/05/23 at 11:03:29.161     
------------------------------------------------------------------------
 total:
 * wall-time:     0 d,  0 h,  0 min,  0.243 sec
 *  cpu-time:     0 d,  0 h,  0 min,  1.281 sec
 * ratio c/w:     5.279 speedup
 SCF:
 * wall-time:     0 d,  0 h,  0 min,  0.034 sec
 *  cpu-time:     0 d,  0 h,  0 min,  0.092 sec
 * ratio c/w:     2.668 speedup
 ANC optimizer:
 * wall-time:     0 d,  0 h,  0 min,  0.081 sec
 *  cpu-time:     0 d,  0 h,  0 min,  0.268 sec
 * ratio c/w:     3.296 speedup

