
                                 *****************
                                 * O   R   C   A *
                                 *****************

                                            #,                                       
                                            ###                                      
                                            ####                                     
                                            #####                                    
                                            ######                                   
                                           ########,                                 
                                     ,,################,,,,,                         
                               ,,#################################,,                 
                          ,,##########################################,,             
                       ,#########################################, ''#####,          
                    ,#############################################,,   '####,        
                  ,##################################################,,,,####,       
                ,###########''''           ''''###############################       
              ,#####''   ,,,,##########,,,,          '''####'''          '####       
            ,##' ,,,,###########################,,,                        '##       
           ' ,,###''''                  '''############,,,                           
         ,,##''                                '''############,,,,        ,,,,,,###''
      ,#''                                            '''#######################'''  
     '                                                          ''''####''''         
             ,#######,   #######,   ,#######,      ##                                
            ,#'     '#,  ##    ##  ,#'     '#,    #''#        ######   ,####,        
            ##       ##  ##   ,#'  ##            #'  '#       #        #'  '#        
            ##       ##  #######   ##           ,######,      #####,   #    #        
            '#,     ,#'  ##    ##  '#,     ,#' ,#      #,         ##   #,  ,#        
             '#######'   ##     ##  '#######'  #'      '#     #####' # '####'        



                  #######################################################
                  #                        -***-                        #
                  #          Department of theory and spectroscopy      #
                  #    Directorship and core code : Frank Neese         #
                  #        Max Planck Institute fuer Kohlenforschung    #
                  #                Kaiser Wilhelm Platz 1               #
                  #                 D-45470 Muelheim/Ruhr               #
                  #                      Germany                        #
                  #                                                     #
                  #                  All rights reserved                #
                  #                        -***-                        #
                  #######################################################


                         Program Version 5.0.4 -  RELEASE  -


 With contributions from (in alphabetic order):
   Daniel Aravena         : Magnetic Suceptibility
   Michael Atanasov       : Ab Initio Ligand Field Theory (pilot matlab implementation)
   Alexander A. Auer      : GIAO ZORA, VPT2 properties, NMR spectrum
   Ute Becker             : Parallelization
   Giovanni Bistoni       : ED, misc. LED, open-shell LED, HFLD
   Martin Brehm           : Molecular dynamics
   Dmytro Bykov           : SCF Hessian
   Vijay G. Chilkuri      : MRCI spin determinant printing, contributions to CSF-ICE
   Dipayan Datta          : RHF DLPNO-CCSD density
   Achintya Kumar Dutta   : EOM-CC, STEOM-CC
   Dmitry Ganyushin       : Spin-Orbit,Spin-Spin,Magnetic field MRCI
   Miquel Garcia          : C-PCM and meta-GGA Hessian, CC/C-PCM, Gaussian charge scheme
   Yang Guo               : DLPNO-NEVPT2, F12-NEVPT2, CIM, IAO-localization
   Andreas Hansen         : Spin unrestricted coupled pair/coupled cluster methods
   Benjamin Helmich-Paris : MC-RPA, TRAH-SCF, COSX integrals
   Lee Huntington         : MR-EOM, pCC
   Robert Izsak           : Overlap fitted RIJCOSX, COSX-SCS-MP3, EOM
   Marcus Kettner         : VPT2
   Christian Kollmar      : KDIIS, OOCD, Brueckner-CCSD(T), CCSD density, CASPT2, CASPT2-K
   Simone Kossmann        : Meta GGA functionals, TD-DFT gradient, OOMP2, MP2 Hessian
   Martin Krupicka        : Initial AUTO-CI
   Lucas Lang             : DCDCAS
   Marvin Lechner         : AUTO-CI (C++ implementation), FIC-MRCC
   Dagmar Lenk            : GEPOL surface, SMD
   Dimitrios Liakos       : Extrapolation schemes; Compound Job, initial MDCI parallelization
   Dimitrios Manganas     : Further ROCIS development; embedding schemes
   Dimitrios Pantazis     : SARC Basis sets
   Anastasios Papadopoulos: AUTO-CI, single reference methods and gradients
   Taras Petrenko         : DFT Hessian,TD-DFT gradient, ASA, ECA, R-Raman, ABS, FL, XAS/XES, NRVS
   Peter Pinski           : DLPNO-MP2, DLPNO-MP2 Gradient
   Christoph Reimann      : Effective Core Potentials
   Marius Retegan         : Local ZFS, SOC
   Christoph Riplinger    : Optimizer, TS searches, QM/MM, DLPNO-CCSD(T), (RO)-DLPNO pert. Triples
   Tobias Risthaus        : Range-separated hybrids, TD-DFT gradient, RPA, STAB
   Michael Roemelt        : Original ROCIS implementation
   Masaaki Saitow         : Open-shell DLPNO-CCSD energy and density
   Barbara Sandhoefer     : DKH picture change effects
   Avijit Sen             : IP-ROCIS
   Kantharuban Sivalingam : CASSCF convergence, NEVPT2, FIC-MRCI
   Bernardo de Souza      : ESD, SOC TD-DFT
   Georgi Stoychev        : AutoAux, RI-MP2 NMR, DLPNO-MP2 response
   Willem Van den Heuvel  : Paramagnetic NMR
   Boris Wezisla          : Elementary symmetry handling
   Frank Wennmohs         : Technical directorship


 We gratefully acknowledge several colleagues who have allowed us to
 interface, adapt or use parts of their codes:
   Stefan Grimme, W. Hujo, H. Kruse, P. Pracht,  : VdW corrections, initial TS optimization,
                  C. Bannwarth, S. Ehlert          DFT functionals, gCP, sTDA/sTD-DF
   Ed Valeev, F. Pavosevic, A. Kumar             : LibInt (2-el integral package), F12 methods
   Garnet Chan, S. Sharma, J. Yang, R. Olivares  : DMRG
   Ulf Ekstrom                                   : XCFun DFT Library
   Mihaly Kallay                                 : mrcc  (arbitrary order and MRCC methods)
   Jiri Pittner, Ondrej Demel                    : Mk-CCSD
   Frank Weinhold                                : gennbo (NPA and NBO analysis)
   Christopher J. Cramer and Donald G. Truhlar   : smd solvation model
   Lars Goerigk                                  : TD-DFT with DH, B97 family of functionals
   V. Asgeirsson, H. Jonsson                     : NEB implementation
   FAccTs GmbH                                   : IRC, NEB, NEB-TS, DLPNO-Multilevel, CI-OPT
                                                   MM, QMMM, 2- and 3-layer-ONIOM, Crystal-QMMM,
                                                   LR-CPCM, SF, NACMEs, symmetry and pop. for TD-DFT,
                                                   nearIR, NL-DFT gradient (VV10), updates on ESD,
                                                   ML-optimized integration grids
   S Lehtola, MJT Oliveira, MAL Marques          : LibXC Library
   Liviu Ungur et al                             : ANISO software


 Your calculation uses the libint2 library for the computation of 2-el integrals
 For citations please refer to: http://libint.valeyev.net

 Your ORCA version has been built with support for libXC version: 5.1.0
 For citations please refer to: https://tddft.org/programs/libxc/

 This ORCA versions uses:
   CBLAS   interface :  Fast vector & matrix operations
   LAPACKE interface :  Fast linear algebra routines
   SCALAPACK package :  Parallel linear algebra routines
   Shared memory     :  Shared parallel matrices
   BLAS/LAPACK       :  OpenBLAS 0.3.15  USE64BITINT DYNAMIC_ARCH NO_AFFINITY Haswell SINGLE_THREADED
        Core in use  :  Haswell
   Copyright (c) 2011-2014, The OpenBLAS Project


Your calculation utilizes the atom-pairwise dispersion correction
with the Becke-Johnson damping scheme (D3BJ)
Cite in your paper:
S.Grimme, S.Ehrlich, L.Goerigk, J Comput Chem, (2011), 32, 1456–1465 
S.Grimme, J.Antony, S.Ehrlich and H.Krieg, J.Chem.Phys., 132, (2010), 154104 
   

================================================================================

----- Orbital basis set information -----
Your calculation utilizes the basis: def2-SVP
   F. Weigend and R. Ahlrichs, Phys. Chem. Chem. Phys. 7, 3297 (2005).

----- AuxJ basis set information -----
Your calculation utilizes the auxiliary basis: def2/J
   F. Weigend, Phys. Chem. Chem. Phys. 8, 1057 (2006).

================================================================================
                                        WARNINGS
                       Please study these warnings very carefully!
================================================================================


WARNING: Geometry Optimization
  ===> : Switching off AutoStart
         For restart on a previous wavefunction, please use MOREAD

INFO   : the flag for use of the SHARK integral package has been found!

================================================================================
                                       INPUT FILE
================================================================================
NAME = r1_C2H4_conf0_opt_orca.inp
|  1> ! LooseOpt PBE0 RIJCOSX D3BJ def2-SVP def2/J 
|  2> %geom MaxIter 10 end
|  3> %output 
|  4> xyzfile=True 
|  5> end 
|  6> %scf 
|  7> maxiter 250 
|  8> end
|  9> %output
| 10> Print[P_Hirshfeld] = 1
| 11> end
| 12> % maxcore
| 13> 4000
| 14> %pal nprocs 8
| 15> end
| 16> *xyz 0 1
| 17> C   -0.62391997  -0.20474920  -0.04877077 
| 18> C    0.62310764   0.20552136   0.05061959 
| 19> H   -1.38619338   0.39406992  -0.52111201 
| 20> H   -0.94274233  -1.16064463   0.33487207 
| 21> H    1.38611430  -0.39370741   0.51974780 
| 22> H    0.94353375   1.15950996  -0.33545668 
| 23> *
| 24> 
| 25>                          ****END OF INPUT****
================================================================================

                       *****************************
                       * Geometry Optimization Run *
                       *****************************

Geometry optimization settings:
Update method            Update   .... BFGS
Choice of coordinates    CoordSys .... Z-matrix Internals
Initial Hessian          InHess   .... Almoef's Model

Convergence Tolerances:
Energy Change            TolE     ....  3.0000e-05 Eh
Max. Gradient            TolMAXG  ....  2.0000e-03 Eh/bohr
RMS Gradient             TolRMSG  ....  5.0000e-04 Eh/bohr
Max. Displacement        TolMAXD  ....  1.0000e-02 bohr
RMS Displacement         TolRMSD  ....  7.0000e-03 bohr
Strict Convergence                ....  False
------------------------------------------------------------------------------
                        ORCA OPTIMIZATION COORDINATE SETUP
------------------------------------------------------------------------------

The optimization will be done in new redundant internal coordinates
Making redundant internal coordinates   ...  (new redundants) done
Evaluating the initial hessian          ...  (Almloef) done
Evaluating the coordinates              ...  done
Calculating the B-matrix                .... done
Calculating the G-matrix                .... done
Diagonalizing the G-matrix              .... done
The first mode is                       ....    3
The number of degrees of freedom        ....   12

    -----------------------------------------------------------------
                    Redundant Internal Coordinates


    -----------------------------------------------------------------
         Definition                    Initial Value    Approx d2E/dq
    -----------------------------------------------------------------
      1. B(C   1,C   0)                  1.3165         0.818350   
      2. B(H   2,C   0)                  1.0783         0.375902   
      3. B(H   3,C   0)                  1.0782         0.376021   
      4. B(H   4,C   1)                  1.0777         0.376810   
      5. B(H   5,C   1)                  1.0779         0.376498   
      6. A(H   2,C   0,H   3)          116.0501         0.294816   
      7. A(C   1,C   0,H   2)          121.9786         0.372766   
      8. A(C   1,C   0,H   3)          121.9711         0.372786   
      9. A(H   4,C   1,H   5)          115.9499         0.294988   
     10. A(C   0,C   1,H   5)          122.0290         0.372867   
     11. A(C   0,C   1,H   4)          122.0208         0.372921   
     12. D(H   4,C   1,C   0,H   3)      0.0210         0.048634   
     13. D(H   5,C   1,C   0,H   2)     -0.0293         0.048634   
     14. D(H   5,C   1,C   0,H   3)    179.7938         0.048634   
     15. D(H   4,C   1,C   0,H   2)   -179.8021         0.048634   
    -----------------------------------------------------------------

Number of atoms                         .... 6
Number of degrees of freedom            .... 15

         *************************************************************
         *                GEOMETRY OPTIMIZATION CYCLE   1            *
         *************************************************************
---------------------------------
CARTESIAN COORDINATES (ANGSTROEM)
---------------------------------
  C     -0.623920   -0.204749   -0.048771
  C      0.623108    0.205521    0.050620
  H     -1.386193    0.394070   -0.521112
  H     -0.942742   -1.160645    0.334872
  H      1.386114   -0.393707    0.519748
  H      0.943534    1.159510   -0.335457

----------------------------
CARTESIAN COORDINATES (A.U.)
----------------------------
  NO LB      ZA    FRAG     MASS         X           Y           Z
   0 C     6.0000    0    12.011   -1.179038   -0.386920   -0.092163
   1 C     6.0000    0    12.011    1.177503    0.388379    0.095657
   2 H     1.0000    0     1.008   -2.619526    0.744684   -0.984759
   3 H     1.0000    0     1.008   -1.781525   -2.193300    0.632817
   4 H     1.0000    0     1.008    2.619376   -0.743999    0.982181
   5 H     1.0000    0     1.008    1.783020    2.191156   -0.633921

--------------------------------
INTERNAL COORDINATES (ANGSTROEM)
--------------------------------
 C      0   0   0     0.000000000000     0.00000000     0.00000000
 C      1   0   0     1.316540252391     0.00000000     0.00000000
 H      1   2   0     1.078309481121   121.97862753     0.00000000
 H      1   2   3     1.078223353028   121.97108071   179.82309176
 H      2   1   3     1.077652800960   122.02076333   180.19788962
 H      2   1   3     1.077878484411   122.02898171   359.97072520

---------------------------
INTERNAL COORDINATES (A.U.)
---------------------------
 C      0   0   0     0.000000000000     0.00000000     0.00000000
 C      1   0   0     2.487900521303     0.00000000     0.00000000
 H      1   2   0     2.037709606929   121.97862753     0.00000000
 H      1   2   3     2.037546848420   121.97108071   179.82309176
 H      2   1   3     2.036468661268   122.02076333   180.19788962
 H      2   1   3     2.036895141183   122.02898171   359.97072520

---------------------
BASIS SET INFORMATION
---------------------
There are 2 groups of distinct atoms

 Group   1 Type C   : 7s4p1d contracted to 3s2p1d pattern {511/31/1}
 Group   2 Type H   : 4s1p contracted to 2s1p pattern {31/1}

Atom   0C    basis set group =>   1
Atom   1C    basis set group =>   1
Atom   2H    basis set group =>   2
Atom   3H    basis set group =>   2
Atom   4H    basis set group =>   2
Atom   5H    basis set group =>   2
---------------------------------
AUXILIARY/J BASIS SET INFORMATION
---------------------------------
There are 2 groups of distinct atoms

 Group   1 Type C   : 12s5p4d2f1g contracted to 6s4p3d1f1g pattern {711111/2111/211/2/1}
 Group   2 Type H   : 5s2p1d contracted to 3s1p1d pattern {311/2/1}

Atom   0C    basis set group =>   1
Atom   1C    basis set group =>   1
Atom   2H    basis set group =>   2
Atom   3H    basis set group =>   2
Atom   4H    basis set group =>   2
Atom   5H    basis set group =>   2


           ************************************************************
           *        Program running with 8 parallel MPI-processes     *
           *              working on a common directory               *
           ************************************************************
------------------------------------------------------------------------------
                           ORCA GTO INTEGRAL CALCULATION
                           -- RI-GTO INTEGRALS CHOSEN --
------------------------------------------------------------------------------
------------------------------------------------------------------------------
                   ___                                                        
                  /   \      - P O W E R E D   B Y -                         
                 /     \                                                     
                 |  |  |   _    _      __       _____    __    __             
                 |  |  |  | |  | |    /  \     |  _  \  |  |  /  |          
                  \  \/   | |  | |   /    \    | | | |  |  | /  /          
                 / \  \   | |__| |  /  /\  \   | |_| |  |  |/  /          
                |  |  |   |  __  | /  /__\  \  |    /   |      \           
                |  |  |   | |  | | |   __   |  |    \   |  |\   \          
                \     /   | |  | | |  |  |  |  | |\  \  |  | \   \       
                 \___/    |_|  |_| |__|  |__|  |_| \__\ |__|  \__/        
                                                                              
                      - O R C A' S   B I G   F R I E N D -                    
                                      &                                       
                       - I N T E G R A L  F E E D E R -                       
                                                                              
 v1 FN, 2020, v2 2021                                                         
------------------------------------------------------------------------------


Reading SHARK input file r1_C2H4_conf0_opt_orca.SHARKINP.tmp ... ok
----------------------
SHARK INTEGRAL PACKAGE
----------------------

Number of atoms                             ...      6
Number of basis functions                   ...     48
Number of shells                            ...     24
Maximum angular momentum                    ...      2
Integral batch strategy                     ... SHARK/LIBINT Hybrid
RI-J (if used) integral strategy            ... SPLIT-RIJ (Revised 2003 algorithm where possible)
Printlevel                                  ...      1
Contraction scheme used                     ... SEGMENTED contraction
Coulomb Range Separation                    ... NOT USED
Exchange Range Separation                   ... NOT USED
Finite Nucleus Model                        ... NOT USED
Auxiliary Coulomb fitting basis             ... AVAILABLE
   # of basis functions in Aux-J            ...    142
   # of shells in Aux-J                     ...     50
   Maximum angular momentum in Aux-J        ...      4
Auxiliary J/K fitting basis                 ... NOT available
Auxiliary Correlation fitting basis         ... NOT available
Auxiliary 'external' fitting basis          ... NOT available
Integral threshold                          ...     2.500000e-11
Primitive cut-off                           ...     2.500000e-12
Primitive pair pre-selection threshold      ...     2.500000e-12

Calculating pre-screening integrals         ... done (  0.0 sec) Dimension = 24
Organizing shell pair data                  ... done (  0.0 sec)
Shell pair information
Total number of shell pairs                 ...       300
Shell pairs after pre-screening             ...       300
Total number of primitive shell pairs       ...      1028
Primitive shell pairs kept                  ...       940
          la=0 lb=0:    105 shell pairs
          la=1 lb=0:    112 shell pairs
          la=1 lb=1:     36 shell pairs
          la=2 lb=0:     28 shell pairs
          la=2 lb=1:     16 shell pairs
          la=2 lb=2:      3 shell pairs

Calculating one electron integrals          ... done (  0.0 sec)
Calculating RI/J V-Matrix + Cholesky decomp.... done (  0.0 sec)
Calculating Nuclear repulsion               ... done (  0.0 sec) ENN=     33.660678941229 Eh

SHARK setup successfully completed in   0.1 seconds

Maximum memory used throughout the entire GTOINT-calculation: 9.0 MB


           ************************************************************
           *        Program running with 8 parallel MPI-processes     *
           *              working on a common directory               *
           ************************************************************
-------------------------------------------------------------------------------
                                 ORCA SCF
-------------------------------------------------------------------------------

------------
SCF SETTINGS
------------
Hamiltonian:
 Density Functional     Method          .... DFT(GTOs)
 Exchange Functional    Exchange        .... PBE
   PBE kappa parameter   XKappa         ....  0.804000
   PBE mue parameter    XMuePBE         ....  0.219520
 Correlation Functional Correlation     .... PBE
   PBE beta parameter  CBetaPBE         ....  0.066725
 LDA part of GGA corr.  LDAOpt          .... PW91-LDA
 Gradients option       PostSCFGGA      .... off
 Hybrid DFT is turned on
   Fraction HF Exchange ScalHFX         ....  0.250000
   Scaling of DF-GGA-X  ScalDFX         ....  0.750000
   Scaling of DF-GGA-C  ScalDFC         ....  1.000000
   Scaling of DF-LDA-C  ScalLDAC        ....  1.000000
   Perturbative correction              ....  0.000000
   Density functional embedding theory  .... OFF
   NL short-range parameter             ....  6.900000
 RI-approximation to the Coulomb term is turned on
   Number of AuxJ basis functions       .... 142
   RIJ-COSX (HFX calculated with COS-X)).... on


General Settings:
 Integral files         IntName         .... r1_C2H4_conf0_opt_orca
 Hartree-Fock type      HFTyp           .... RHF
 Total Charge           Charge          ....    0
 Multiplicity           Mult            ....    1
 Number of Electrons    NEL             ....   16
 Basis Dimension        Dim             ....   48
 Nuclear Repulsion      ENuc            ....     33.6606789412 Eh

Convergence Acceleration:
 DIIS                   CNVDIIS         .... on
   Start iteration      DIISMaxIt       ....    12
   Startup error        DIISStart       ....  0.200000
   # of expansion vecs  DIISMaxEq       ....     5
   Bias factor          DIISBfac        ....   1.050
   Max. coefficient     DIISMaxC        ....  10.000
 Trust-Rad. Augm. Hess. CNVTRAH         .... auto
   Auto Start mean grad. ratio tolernc. ....  1.125000
   Auto Start start iteration           ....    20
   Auto Start num. interpolation iter.  ....    10
   Max. Number of Micro iterations      ....    16
   Max. Number of Macro iterations      .... Maxiter - #DIIS iter
   Number of Davidson start vectors     ....     2
   Converg. threshold I  (grad. norm)   ....   1.000e-05
   Converg. threshold II (energy diff.) ....   1.000e-08
   Grad. Scal. Fac. for Micro threshold ....   0.100
   Minimum threshold for Micro iter.    ....   0.010
   NR start threshold (gradient norm)   ....   0.001
   Initial trust radius                 ....   0.400
   Minimum AH scaling param. (alpha)    ....   1.000
   Maximum AH scaling param. (alpha)    .... 1000.000
   Orbital update algorithm             .... Taylor
   White noise on init. David. guess    .... on
   Maximum white noise                  ....   0.010
   Quad. conv. algorithm                .... NR
 SOSCF                  CNVSOSCF        .... on
   Start iteration      SOSCFMaxIt      ....   150
   Startup grad/error   SOSCFStart      ....  0.003300
 Level Shifting         CNVShift        .... on
   Level shift para.    LevelShift      ....    0.2500
   Turn off err/grad.   ShiftErr        ....    0.0010
 Zerner damping         CNVZerner       .... off
 Static damping         CNVDamp         .... on
   Fraction old density DampFac         ....    0.7000
   Max. Damping (<1)    DampMax         ....    0.9800
   Min. Damping (>=0)   DampMin         ....    0.0000
   Turn off err/grad.   DampErr         ....    0.1000
 Fernandez-Rico         CNVRico         .... off

SCF Procedure:
 Maximum # iterations   MaxIter         ....   250
 SCF integral mode      SCFMode         .... Direct
   Integral package                     .... SHARK and LIBINT hybrid scheme
 Reset frequency        DirectResetFreq ....    20
 Integral Threshold     Thresh          ....  2.500e-11 Eh
 Primitive CutOff       TCut            ....  2.500e-12 Eh

Convergence Tolerance:
 Convergence Check Mode ConvCheckMode   .... Total+1el-Energy
 Convergence forced     ConvForced      .... 0
 Energy Change          TolE            ....  1.000e-08 Eh
 1-El. energy change                    ....  1.000e-05 Eh
 Orbital Gradient       TolG            ....  1.000e-05
 Orbital Rotation angle TolX            ....  1.000e-05
 DIIS Error             TolErr          ....  5.000e-07


Diagonalization of the overlap matrix:
Smallest eigenvalue                        ... 3.719e-03
Time for diagonalization                   ...    0.002 sec
Threshold for overlap eigenvalues          ... 1.000e-08
Number of eigenvalues below threshold      ... 0
Time for construction of square roots      ...    0.001 sec
Total time needed                          ...    0.004 sec

Time for model grid setup =    0.015 sec

------------------------------
INITIAL GUESS: MODEL POTENTIAL
------------------------------
Loading Hartree-Fock densities                     ... done
Calculating cut-offs                               ... done
Initializing the effective Hamiltonian             ... done
Setting up the integral package (SHARK)            ... done
Starting the Coulomb interaction                   ... done (   0.0 sec)
Reading the grid                                   ... done
Mapping shells                                     ... done
Starting the XC term evaluation                    ... done (   0.0 sec)
  promolecular density results
     # of electrons  =     15.998202562
     EX              =    -11.362621389
     EC              =     -0.489560821
     EX+EC           =    -11.852182209
Transforming the Hamiltonian                       ... done (   0.0 sec)
Diagonalizing the Hamiltonian                      ... done (   0.0 sec)
Back transforming the eigenvectors                 ... done (   0.0 sec)
Now organizing SCF variables                       ... done
                      ------------------
                      INITIAL GUESS DONE (   0.0 sec)
                      ------------------
-------------------
DFT GRID GENERATION
-------------------

General Integration Accuracy     IntAcc      ... 4.388
Radial Grid Type                 RadialGrid  ... OptM3 with GC (2021)
Angular Grid (max. ang.)         AngularGrid ... 4 (Lebedev-302)
Angular grid pruning method      GridPruning ... 4 (adaptive)
Weight generation scheme         WeightScheme... Becke
Basis function cutoff            BFCut       ... 1.0000e-11
Integration weight cutoff        WCut        ... 1.0000e-14
Angular grids for H and He will be reduced by one unit
Partially contracted basis set               ... off
Rotationally invariant grid construction     ... off

Total number of grid points                  ...    25311
Total number of batches                      ...      398
Average number of points per batch           ...       63
Average number of grid points per atom       ...     4218
Time for grid setup =    0.096 sec

--------------------
COSX GRID GENERATION
--------------------

GRIDX 1
-------
General Integration Accuracy     IntAcc      ... 3.816
Radial Grid Type                 RadialGrid  ... OptM3 with GC (2021)
Angular Grid (max. ang.)         AngularGrid ... 1 (Lebedev-50)
Angular grid pruning method      GridPruning ... 4 (adaptive)
Weight generation scheme         WeightScheme... Becke
Basis function cutoff            BFCut       ... 1.0000e-11
Integration weight cutoff        WCut        ... 1.0000e-14
Angular grids for H and He will be reduced by one unit
Partially contracted basis set               ... on
Rotationally invariant grid construction     ... off

Total number of grid points                  ...     3280
Total number of batches                      ...       54
Average number of points per batch           ...       60
Average number of grid points per atom       ...      547
UseSFitting                                  ... on

GRIDX 2
-------
General Integration Accuracy     IntAcc      ... 4.020
Radial Grid Type                 RadialGrid  ... OptM3 with GC (2021)
Angular Grid (max. ang.)         AngularGrid ... 2 (Lebedev-110)
Angular grid pruning method      GridPruning ... 4 (adaptive)
Weight generation scheme         WeightScheme... Becke
Basis function cutoff            BFCut       ... 1.0000e-11
Integration weight cutoff        WCut        ... 1.0000e-14
Angular grids for H and He will be reduced by one unit
Partially contracted basis set               ... on
Rotationally invariant grid construction     ... off

Total number of grid points                  ...     6904
Total number of batches                      ...      112
Average number of points per batch           ...       61
Average number of grid points per atom       ...     1151
UseSFitting                                  ... on

GRIDX 3
-------
General Integration Accuracy     IntAcc      ... 4.338
Radial Grid Type                 RadialGrid  ... OptM3 with GC (2021)
Angular Grid (max. ang.)         AngularGrid ... 3 (Lebedev-194)
Angular grid pruning method      GridPruning ... 4 (adaptive)
Weight generation scheme         WeightScheme... Becke
Basis function cutoff            BFCut       ... 1.0000e-11
Integration weight cutoff        WCut        ... 1.0000e-14
Angular grids for H and He will be reduced by one unit
Partially contracted basis set               ... on
Rotationally invariant grid construction     ... off

Total number of grid points                  ...    15228
Total number of batches                      ...      240
Average number of points per batch           ...       63
Average number of grid points per atom       ...     2538
UseSFitting                                  ... on

Time for X-Grid setup             =    0.065 sec

--------------
SCF ITERATIONS
--------------
ITER       Energy         Delta-E        Max-DP      RMS-DP      [F,P]     Damp
               ***  Starting incremental Fock matrix formation  ***
  0    -78.3537392859   0.000000000000 0.05678514  0.00344500  0.1414087 0.7000
  1    -78.3851810980  -0.031441812164 0.03737822  0.00251919  0.0801488 0.7000
                               ***Turning on DIIS***
  2    -78.3995060524  -0.014324954374 0.05836693  0.00443479  0.0359324 0.0000
  3    -78.4191674848  -0.019661432407 0.02631634  0.00170236  0.0382569 0.0000
  4    -78.4244303519  -0.005262867121 0.00454332  0.00044643  0.0082894 0.0000
                      *** Initiating the SOSCF procedure ***
                           *** Shutting down DIIS ***
                      *** Re-Reading the Fockian *** 
                      *** Removing any level shift *** 
ITER      Energy       Delta-E        Grad      Rot      Max-DP    RMS-DP
  5    -78.42468351  -0.0002531563  0.000811  0.000811  0.001520  0.000148
               *** Restarting incremental Fock matrix formation ***
  6    -78.42463504   0.0000484634  0.000326  0.000574  0.000883  0.000082
  7    -78.42463543  -0.0000003885  0.000296  0.000193  0.000376  0.000022
  8    -78.42463602  -0.0000005821  0.000011  0.000012  0.000020  0.000001
  9    -78.42463602   0.0000000002  0.000005  0.000010  0.000009  0.000001
                 **** Energy Check signals convergence ****
              ***Rediagonalizing the Fockian in SOSCF/NRSCF***

               *****************************************************
               *                     SUCCESS                       *
               *           SCF CONVERGED AFTER  10 CYCLES          *
               *****************************************************

Old exchange energy                            =     -2.934739717 Eh
New exchange energy                            =     -2.934752271 Eh
Exchange energy change after final integration =     -0.000012554 Eh
Total energy after final integration           =    -78.424648569 Eh
Final COS-X integration done in                =     0.081 sec

----------------
TOTAL SCF ENERGY
----------------

Total Energy       :          -78.42464857 Eh           -2134.04318 eV

Components:
Nuclear Repulsion  :           33.66067894 Eh             915.95364 eV
Electronic Energy  :         -112.08532751 Eh           -3049.99682 eV
One Electron Energy:         -170.74801876 Eh           -4646.28980 eV
Two Electron Energy:           58.66269125 Eh            1596.29298 eV
Max COSX asymmetry :            0.00000146 Eh               0.00004 eV

Virial components:
Potential Energy   :         -156.02031454 Eh           -4245.52860 eV
Kinetic Energy     :           77.59566597 Eh            2111.48542 eV
Virial Ratio       :            2.01068336


DFT components:
N(Alpha)           :        8.000003435197 electrons
N(Beta)            :        8.000003435197 electrons
N(Total)           :       16.000006870393 electrons
E(X)               :       -8.756195743024 Eh       
E(C)               :       -0.501881301637 Eh       
E(XC)              :       -9.258077044661 Eh       
DFET-embed. en.    :        0.000000000000 Eh       

---------------
SCF CONVERGENCE
---------------

  Last Energy change         ...   -1.2993e-10  Tolerance :   1.0000e-08
  Last MAX-Density change    ...    3.1086e-15  Tolerance :   1.0000e-07
  Last RMS-Density change    ...    7.1117e-17  Tolerance :   5.0000e-09
  Last Orbital Gradient      ...    4.0829e-06  Tolerance :   1.0000e-05
  Last Orbital Rotation      ...    5.4627e-06  Tolerance :   1.0000e-05

             **** THE GBW FILE WAS UPDATED (r1_C2H4_conf0_opt_orca.gbw) ****
             **** DENSITY r1_C2H4_conf0_opt_orca.scfp WAS UPDATED ****
             **** ENERGY FILE WAS UPDATED (r1_C2H4_conf0_opt_orca.en.tmp) ****
             **** THE GBW FILE WAS UPDATED (r1_C2H4_conf0_opt_orca.gbw) ****
             **** DENSITY r1_C2H4_conf0_opt_orca.scfp WAS UPDATED ****
----------------
ORBITAL ENERGIES
----------------

  NO   OCC          E(Eh)            E(eV) 
   0   2.0000     -10.230921      -278.3975 
   1   2.0000     -10.230021      -278.3730 
   2   2.0000      -0.778334       -21.1796 
   3   2.0000      -0.591561       -16.0972 
   4   2.0000      -0.483590       -13.1592 
   5   2.0000      -0.435948       -11.8627 
   6   2.0000      -0.363613        -9.8944 
   7   2.0000      -0.288831        -7.8595 
   8   0.0000       0.016773         0.4564 
   9   0.0000       0.099570         2.7094 
  10   0.0000       0.118061         3.2126 
  11   0.0000       0.132447         3.6041 
  12   0.0000       0.202850         5.5198 
  13   0.0000       0.341310         9.2875 
  14   0.0000       0.406329        11.0568 
  15   0.0000       0.448233        12.1970 
  16   0.0000       0.459510        12.5039 
  17   0.0000       0.507285        13.8039 
  18   0.0000       0.572358        15.5746 
  19   0.0000       0.600329        16.3358 
  20   0.0000       0.676766        18.4157 
  21   0.0000       0.695520        18.9261 
  22   0.0000       0.699771        19.0417 
  23   0.0000       0.719495        19.5785 
  24   0.0000       0.849799        23.1242 
  25   0.0000       1.064080        28.9551 
  26   0.0000       1.181568        32.1521 
  27   0.0000       1.246849        33.9285 
  28   0.0000       1.278512        34.7901 
  29   0.0000       1.605027        43.6750 
  30   0.0000       1.648100        44.8471 
  31   0.0000       1.651885        44.9501 
  32   0.0000       1.719435        46.7882 
  33   0.0000       1.769539        48.1516 
  34   0.0000       1.789397        48.6920 
  35   0.0000       1.832730        49.8711 
  36   0.0000       1.943654        52.8895 
  37   0.0000       2.079350        56.5820 
  38   0.0000       2.191072        59.6221 
  39   0.0000       2.276841        61.9560 
  40   0.0000       2.412934        65.6593 
  41   0.0000       2.424242        65.9670 
  42   0.0000       2.510594        68.3167 
  43   0.0000       2.728839        74.2555 
  44   0.0000       2.839572        77.2687 
  45   0.0000       2.873957        78.2044 
  46   0.0000       3.105505        84.5051 
  47   0.0000       3.387988        92.1918 

                    ********************************
                    * MULLIKEN POPULATION ANALYSIS *
                    ********************************

-----------------------
MULLIKEN ATOMIC CHARGES
-----------------------
   0 C :   -0.102329
   1 C :   -0.102213
   2 H :    0.051180
   3 H :    0.051290
   4 H :    0.050935
   5 H :    0.051137
Sum of atomic charges:   -0.0000000

--------------------------------
MULLIKEN REDUCED ORBITAL CHARGES
--------------------------------
  0 C s       :     3.129808  s :     3.129808
      pz      :     0.981743  p :     2.944559
      px      :     0.986842
      py      :     0.975975
      dz2     :     0.001358  d :     0.027962
      dxz     :     0.006889
      dyz     :     0.002066
      dx2y2   :     0.007966
      dxy     :     0.009684
  1 C s       :     3.129486  s :     3.129486
      pz      :     0.981866  p :     2.944758
      px      :     0.986622
      py      :     0.976270
      dz2     :     0.001353  d :     0.027969
      dxz     :     0.006885
      dyz     :     0.002072
      dx2y2   :     0.007941
      dxy     :     0.009719
  2 H s       :     0.923941  s :     0.923941
      pz      :     0.006945  p :     0.024878
      px      :     0.009848
      py      :     0.008086
  3 H s       :     0.923825  s :     0.923825
      pz      :     0.006221  p :     0.024885
      px      :     0.005284
      py      :     0.013379
  4 H s       :     0.924152  s :     0.924152
      pz      :     0.006927  p :     0.024913
      px      :     0.009873
      py      :     0.008113
  5 H s       :     0.923959  s :     0.923959
      pz      :     0.006247  p :     0.024904
      px      :     0.005297
      py      :     0.013360


                     *******************************
                     * LOEWDIN POPULATION ANALYSIS *
                     *******************************

----------------------
LOEWDIN ATOMIC CHARGES
----------------------
   0 C :   -0.053708
   1 C :   -0.053630
   2 H :    0.026906
   3 H :    0.026913
   4 H :    0.026722
   5 H :    0.026797

-------------------------------
LOEWDIN REDUCED ORBITAL CHARGES
-------------------------------
  0 C s       :     2.881498  s :     2.881498
      pz      :     0.980143  p :     3.099407
      px      :     1.080838
      py      :     1.038425
      dz2     :     0.003938  d :     0.072803
      dxz     :     0.015524
      dyz     :     0.005118
      dx2y2   :     0.022000
      dxy     :     0.026222
  1 C s       :     2.881228  s :     2.881228
      pz      :     0.980187  p :     3.099553
      px      :     1.080773
      py      :     1.038592
      dz2     :     0.003928  d :     0.072849
      dxz     :     0.015528
      dyz     :     0.005135
      dx2y2   :     0.021944
      dxy     :     0.026314
  2 H s       :     0.903033  s :     0.903033
      pz      :     0.020394  p :     0.070061
      px      :     0.026606
      py      :     0.023060
  3 H s       :     0.903008  s :     0.903008
      pz      :     0.018398  p :     0.070079
      px      :     0.014046
      py      :     0.037635
  4 H s       :     0.903110  s :     0.903110
      pz      :     0.020346  p :     0.070169
      px      :     0.026681
      py      :     0.023141
  5 H s       :     0.903072  s :     0.903072
      pz      :     0.018485  p :     0.070131
      px      :     0.014082
      py      :     0.037565


                      *****************************
                      * MAYER POPULATION ANALYSIS *
                      *****************************

  NA   - Mulliken gross atomic population
  ZA   - Total nuclear charge
  QA   - Mulliken gross atomic charge
  VA   - Mayer's total valence
  BVA  - Mayer's bonded valence
  FA   - Mayer's free valence

  ATOM       NA         ZA         QA         VA         BVA        FA
  0 C      6.1023     6.0000    -0.1023     4.0116     4.0116    -0.0000
  1 C      6.1022     6.0000    -0.1022     4.0118     4.0118    -0.0000
  2 H      0.9488     1.0000     0.0512     0.9748     0.9748    -0.0000
  3 H      0.9487     1.0000     0.0513     0.9748     0.9748    -0.0000
  4 H      0.9491     1.0000     0.0509     0.9748     0.9748    -0.0000
  5 H      0.9489     1.0000     0.0511     0.9748     0.9748    -0.0000

  Mayer bond orders larger than 0.100000
B(  0-C ,  1-C ) :   2.0700 B(  0-C ,  2-H ) :   0.9652 B(  0-C ,  3-H ) :   0.9652 
B(  1-C ,  4-H ) :   0.9653 B(  1-C ,  5-H ) :   0.9653 


------------------
HIRSHFELD ANALYSIS
------------------

Total integrated alpha density =      8.000003435
Total integrated beta density  =      8.000003435

  ATOM     CHARGE      SPIN    
   0 C   -0.069607    0.000000
   1 C   -0.069680    0.000000
   2 H    0.034844    0.000000
   3 H    0.034852    0.000000
   4 H    0.034779    0.000000
   5 H    0.034805    0.000000

  TOTAL  -0.000007    0.000000

-------
TIMINGS
-------

Total SCF time: 0 days 0 hours 0 min 1 sec 

Total time                  ....       1.376 sec
Sum of individual times     ....       1.284 sec  ( 93.3%)

Fock matrix formation       ....       1.038 sec  ( 75.4%)
  Split-RI-J                ....       0.188 sec  ( 18.1% of F)
  Chain of spheres X        ....       0.579 sec  ( 55.8% of F)
  XC integration            ....       0.221 sec  ( 21.3% of F)
    Basis function eval.    ....       0.067 sec  ( 30.1% of XC)
    Density eval.           ....       0.034 sec  ( 15.4% of XC)
    XC-Functional eval.     ....       0.035 sec  ( 15.8% of XC)
    XC-Potential eval.      ....       0.028 sec  ( 12.6% of XC)
Diagonalization             ....       0.013 sec  (  1.0%)
Density matrix formation    ....       0.001 sec  (  0.1%)
Population analysis         ....       0.020 sec  (  1.5%)
Initial guess               ....       0.010 sec  (  0.8%)
Orbital Transformation      ....       0.000 sec  (  0.0%)
Orbital Orthonormalization  ....       0.000 sec  (  0.0%)
DIIS solution               ....       0.015 sec  (  1.1%)
SOSCF solution              ....       0.010 sec  (  0.7%)
Grid generation             ....       0.176 sec  ( 12.8%)

Maximum memory used throughout the entire SCF-calculation: 44.0 MB


-------------------------------------------------------------------------------
                          DFT DISPERSION CORRECTION                            
                                                                               
                              DFTD3 V3.1  Rev 1                                
                          USING Becke-Johnson damping                          
-------------------------------------------------------------------------------
The PBE0 functional is recognized
Active option DFTDOPT                   ...         4   

molecular C6(AA) [au] = 294.432629 


            DFT-D V3
 parameters
 s6 scaling factor         :     1.0000 
 a1 scaling factor         :     0.4145 
 s8 scaling factor         :     1.2177 
 a2 scaling factor         :     4.8593 
 ad hoc parameters k1-k3   :    16.0000     1.3333    -4.0000 

 Edisp/kcal,au: -1.194812330059  -0.001904054444 
 E6   /kcal   :  -0.783447888 
 E8   /kcal   :  -0.411364442 
 % E8         :  34.429209665 

-------------------------   ----------------
Dispersion correction           -0.001904054
-------------------------   ----------------


-------------------------   --------------------
FINAL SINGLE POINT ENERGY       -78.426552623544
-------------------------   --------------------



           ************************************************************
           *        Program running with 8 parallel MPI-processes     *
           *              working on a common directory               *
           ************************************************************
------------------------------------------------------------------------------
                         ORCA SCF GRADIENT CALCULATION
------------------------------------------------------------------------------

 ... reading COSX grid (gridx3)
Gradient of the Kohn-Sham DFT energy:
Kohn-Sham wavefunction type      ... RKS
Hartree-Fock exchange scaling    ...    0.250
Number of operators              ...    1
Number of atoms                  ...    6
Basis set dimensions             ...   48
Integral neglect threshold       ... 2.5e-11
Integral primitive cutoff        ... 2.5e-12
SHARK Integral package           ... ON

Nuc. rep. gradient       (SHARK) ... done (  0.0 sec)
HCore & Overlap gradient (SHARK) ... done (  0.0 sec)
RI-J gradient            (SHARK) ... done (  0.1 sec)
COSX-gradient                    ... done (  0.1 sec)
Exchange-correlation gradient    ... done
Dispersion correction            ... done

------------------
CARTESIAN GRADIENT
------------------

   1   C   :    0.006460825    0.002188400    0.000683696
   2   C   :   -0.006296875   -0.002155918   -0.000295329
   3   H   :    0.007827595   -0.006993851    0.005153471
   4   H   :    0.002882605    0.010507432   -0.004463812
   5   H   :   -0.008072656    0.007304138   -0.005539649
   6   H   :   -0.002799456   -0.010850593    0.004460210

Difference to translation invariance:
           :    0.0000020381   -0.0000003927   -0.0000014131

Difference to rotation invariance:
           :   -0.0000375557    0.0000227915   -0.0001652994

Norm of the cartesian gradient     ...    0.0257184949
RMS gradient                       ...    0.0060619074
MAX gradient                       ...    0.0108505934

-------
TIMINGS
-------

Total SCF gradient time            ...        0.412 sec

One electron gradient       ....       0.003 sec  (  0.6%)
RI-J Coulomb gradient       ....       0.058 sec  ( 14.1%)
COSX gradient               ....       0.110 sec  ( 26.7%)
XC gradient                 ....       0.075 sec  ( 18.1%)

Maximum memory used throughout the entire SCFGRAD-calculation: 33.5 MB
------------------------------------------------------------------------------
                         ORCA GEOMETRY RELAXATION STEP
------------------------------------------------------------------------------

Reading the OPT-File                    .... done
Getting information on internals        .... done
Copying old internal coords+grads       .... done
Making the new internal coordinates     .... (new redundants).... done
Validating the new internal coordinates .... (new redundants).... done
Calculating the B-matrix                .... done
Calculating the G,G- and P matrices     .... done
Transforming gradient to internals      .... done
Projecting the internal gradient        .... done
Number of atoms                         ....   6
Number of internal coordinates          ....  15
Current Energy                          ....   -78.426552624 Eh
Current gradient norm                   ....     0.025718495 Eh/bohr
Maximum allowed component of the step   ....  0.300
Current trust radius                    ....  0.300
Evaluating the initial hessian          ....  (Almloef) done
Projecting the Hessian                  .... done
Forming the augmented Hessian           .... done
Diagonalizing the augmented Hessian     .... done
Last element of RFO vector              ....  0.997752839
Lowest eigenvalues of augmented Hessian:
 -0.001913056  0.048633921  0.048634683  0.048635857  0.320806601
Length of the computed step             ....  0.067152929
The final length of the internal step   ....  0.067152929
Converting the step to cartesian space:
 Initial RMS(Int)=    0.0173388118
Transforming coordinates:
 Iter   0:  RMS(Cart)=    0.0182529989 RMS(Int)=    0.0173378465
 Iter   1:  RMS(Cart)=    0.0000266089 RMS(Int)=    0.0000289651
 Iter   2:  RMS(Cart)=    0.0000004401 RMS(Int)=    0.0000004839
 Iter   3:  RMS(Cart)=    0.0000000072 RMS(Int)=    0.0000000080
done
Storing new coordinates                 .... done

                                .--------------------.
          ----------------------|Geometry convergence|-------------------------
          Item                value                   Tolerance       Converged
          ---------------------------------------------------------------------
          RMS gradient        0.0077464343            0.0005000000      NO
          MAX gradient        0.0181441263            0.0020000000      NO
          RMS step            0.0173388118            0.0070000000      NO
          MAX step            0.0321937906            0.0100000000      NO
          ........................................................
          Max(Bonds)      0.0170      Max(Angles)    0.19
          Max(Dihed)        0.19      Max(Improp)    0.00
          ---------------------------------------------------------------------

The optimization has not yet converged - more geometry cycles are needed


    ---------------------------------------------------------------------------
                         Redundant Internal Coordinates
                            (Angstroem and degrees)

        Definition                    Value    dE/dq     Step     New-Value
    ----------------------------------------------------------------------------
     1. B(C   1,C   0)                1.3165 -0.018144  0.0117    1.3282   
     2. B(H   2,C   0)                1.0783 -0.011678  0.0164    1.0947   
     3. B(H   3,C   0)                1.0782 -0.011752  0.0165    1.0947   
     4. B(H   4,C   1)                1.0777 -0.012193  0.0170    1.0947   
     5. B(H   5,C   1)                1.0779 -0.012030  0.0168    1.0947   
     6. A(H   2,C   0,H   3)          116.05 -0.000894    0.16    116.21   
     7. A(C   1,C   0,H   2)          121.98  0.000469   -0.08    121.90   
     8. A(C   1,C   0,H   3)          121.97  0.000425   -0.08    121.90   
     9. A(H   4,C   1,H   5)          115.95 -0.001089    0.19    116.14   
    10. A(C   0,C   1,H   5)          122.03  0.000539   -0.10    121.93   
    11. A(C   0,C   1,H   4)          122.02  0.000550   -0.10    121.92   
    12. D(H   4,C   1,C   0,H   3)      0.02 -0.000005    0.01      0.03   
    13. D(H   5,C   1,C   0,H   2)     -0.03 -0.000000    0.00     -0.03   
    14. D(H   5,C   1,C   0,H   3)    179.79 -0.000171    0.19    179.99   
    15. D(H   4,C   1,C   0,H   2)   -179.80  0.000166   -0.19   -179.99   
    ----------------------------------------------------------------------------

         *************************************************************
         *                GEOMETRY OPTIMIZATION CYCLE   2            *
         *************************************************************
---------------------------------
CARTESIAN COORDINATES (ANGSTROEM)
---------------------------------
  C     -0.629256   -0.206995   -0.050123
  C      0.628845    0.206963    0.050151
  H     -1.402369    0.402667   -0.528561
  H     -0.951895   -1.177082    0.341228
  H      1.402362   -0.402403    0.528365
  H      0.952213    1.176850   -0.341160

----------------------------
CARTESIAN COORDINATES (A.U.)
----------------------------
  NO LB      ZA    FRAG     MASS         X           Y           Z
   0 C     6.0000    0    12.011   -1.189122   -0.391164   -0.094719
   1 C     6.0000    0    12.011    1.188346    0.391104    0.094771
   2 H     1.0000    0     1.008   -2.650094    0.760930   -0.998836
   3 H     1.0000    0     1.008   -1.798821   -2.224363    0.644828
   4 H     1.0000    0     1.008    2.650080   -0.760431    0.998465
   5 H     1.0000    0     1.008    1.799422    2.223924   -0.644699

--------------------------------
INTERNAL COORDINATES (ANGSTROEM)
--------------------------------
 C      0   0   0     0.000000000000     0.00000000     0.00000000
 C      1   0   0     1.328245597794     0.00000000     0.00000000
 H      1   2   0     1.094666373639   121.89597184     0.00000000
 H      1   2   3     1.094678503384   121.89515691   180.01643251
 H      2   1   3     1.094689021201   121.92344520   180.00963008
 H      2   1   3     1.094701031194   121.93332528   359.97106257

---------------------------
INTERNAL COORDINATES (A.U.)
---------------------------
 C      0   0   0     0.000000000000     0.00000000     0.00000000
 C      1   0   0     2.510020418417     0.00000000     0.00000000
 H      1   2   0     2.068619654191   121.89597184     0.00000000
 H      1   2   3     2.068642576086   121.89515691   180.01643251
 H      2   1   3     2.068662451879   121.92344520   180.00963008
 H      2   1   3     2.068685147477   121.93332528   359.97106257



           ************************************************************
           *        Program running with 8 parallel MPI-processes     *
           *              working on a common directory               *
           ************************************************************
------------------------------------------------------------------------------
                   ___                                                        
                  /   \      - P O W E R E D   B Y -                         
                 /     \                                                     
                 |  |  |   _    _      __       _____    __    __             
                 |  |  |  | |  | |    /  \     |  _  \  |  |  /  |          
                  \  \/   | |  | |   /    \    | | | |  |  | /  /          
                 / \  \   | |__| |  /  /\  \   | |_| |  |  |/  /          
                |  |  |   |  __  | /  /__\  \  |    /   |      \           
                |  |  |   | |  | | |   __   |  |    \   |  |\   \          
                \     /   | |  | | |  |  |  |  | |\  \  |  | \   \       
                 \___/    |_|  |_| |__|  |__|  |_| \__\ |__|  \__/        
                                                                              
                      - O R C A' S   B I G   F R I E N D -                    
                                      &                                       
                       - I N T E G R A L  F E E D E R -                       
                                                                              
 v1 FN, 2020, v2 2021                                                         
------------------------------------------------------------------------------


Reading SHARK input file r1_C2H4_conf0_opt_orca.SHARKINP.tmp ... ok
----------------------
SHARK INTEGRAL PACKAGE
----------------------

Number of atoms                             ...      6
Number of basis functions                   ...     48
Number of shells                            ...     24
Maximum angular momentum                    ...      2
Integral batch strategy                     ... SHARK/LIBINT Hybrid
RI-J (if used) integral strategy            ... SPLIT-RIJ (Revised 2003 algorithm where possible)
Printlevel                                  ...      1
Contraction scheme used                     ... SEGMENTED contraction
Coulomb Range Separation                    ... NOT USED
Exchange Range Separation                   ... NOT USED
Finite Nucleus Model                        ... NOT USED
Auxiliary Coulomb fitting basis             ... AVAILABLE
   # of basis functions in Aux-J            ...    142
   # of shells in Aux-J                     ...     50
   Maximum angular momentum in Aux-J        ...      4
Auxiliary J/K fitting basis                 ... NOT available
Auxiliary Correlation fitting basis         ... NOT available
Auxiliary 'external' fitting basis          ... NOT available
Integral threshold                          ...     2.500000e-11
Primitive cut-off                           ...     2.500000e-12
Primitive pair pre-selection threshold      ...     2.500000e-12

Calculating pre-screening integrals         ... done (  0.0 sec) Dimension = 24
Organizing shell pair data                  ... done (  0.0 sec)
Shell pair information
Total number of shell pairs                 ...       300
Shell pairs after pre-screening             ...       300
Total number of primitive shell pairs       ...      1028
Primitive shell pairs kept                  ...       935
          la=0 lb=0:    105 shell pairs
          la=1 lb=0:    112 shell pairs
          la=1 lb=1:     36 shell pairs
          la=2 lb=0:     28 shell pairs
          la=2 lb=1:     16 shell pairs
          la=2 lb=2:      3 shell pairs

Calculating one electron integrals          ... done (  0.0 sec)
Calculating RI/J V-Matrix + Cholesky decomp.... done (  0.0 sec)
Calculating Nuclear repulsion               ... done (  0.0 sec) ENN=     33.267651517862 Eh

SHARK setup successfully completed in   0.1 seconds

Maximum memory used throughout the entire GTOINT-calculation: 9.0 MB


           ************************************************************
           *        Program running with 8 parallel MPI-processes     *
           *              working on a common directory               *
           ************************************************************

Diagonalization of the overlap matrix:
Smallest eigenvalue                        ... 3.911e-03
Time for diagonalization                   ...    0.001 sec
Threshold for overlap eigenvalues          ... 1.000e-08
Number of eigenvalues below threshold      ... 0
Time for construction of square roots      ...    0.001 sec
Total time needed                          ...    0.003 sec

-------------------
DFT GRID GENERATION
-------------------

General Integration Accuracy     IntAcc      ... 4.388
Radial Grid Type                 RadialGrid  ... OptM3 with GC (2021)
Angular Grid (max. ang.)         AngularGrid ... 4 (Lebedev-302)
Angular grid pruning method      GridPruning ... 4 (adaptive)
Weight generation scheme         WeightScheme... Becke
Basis function cutoff            BFCut       ... 1.0000e-11
Integration weight cutoff        WCut        ... 1.0000e-14
Angular grids for H and He will be reduced by one unit
Partially contracted basis set               ... off
Rotationally invariant grid construction     ... off

Total number of grid points                  ...    25318
Total number of batches                      ...      400
Average number of points per batch           ...       63
Average number of grid points per atom       ...     4220
Time for grid setup =    0.097 sec

--------------------
COSX GRID GENERATION
--------------------

GRIDX 1
-------
General Integration Accuracy     IntAcc      ... 3.816
Radial Grid Type                 RadialGrid  ... OptM3 with GC (2021)
Angular Grid (max. ang.)         AngularGrid ... 1 (Lebedev-50)
Angular grid pruning method      GridPruning ... 4 (adaptive)
Weight generation scheme         WeightScheme... Becke
Basis function cutoff            BFCut       ... 1.0000e-11
Integration weight cutoff        WCut        ... 1.0000e-14
Angular grids for H and He will be reduced by one unit
Partially contracted basis set               ... on
Rotationally invariant grid construction     ... off

Total number of grid points                  ...     3282
Total number of batches                      ...       54
Average number of points per batch           ...       60
Average number of grid points per atom       ...      547
UseSFitting                                  ... on

GRIDX 2
-------
General Integration Accuracy     IntAcc      ... 4.020
Radial Grid Type                 RadialGrid  ... OptM3 with GC (2021)
Angular Grid (max. ang.)         AngularGrid ... 2 (Lebedev-110)
Angular grid pruning method      GridPruning ... 4 (adaptive)
Weight generation scheme         WeightScheme... Becke
Basis function cutoff            BFCut       ... 1.0000e-11
Integration weight cutoff        WCut        ... 1.0000e-14
Angular grids for H and He will be reduced by one unit
Partially contracted basis set               ... on
Rotationally invariant grid construction     ... off

Total number of grid points                  ...     6906
Total number of batches                      ...      112
Average number of points per batch           ...       61
Average number of grid points per atom       ...     1151
UseSFitting                                  ... on

GRIDX 3
-------
General Integration Accuracy     IntAcc      ... 4.338
Radial Grid Type                 RadialGrid  ... OptM3 with GC (2021)
Angular Grid (max. ang.)         AngularGrid ... 3 (Lebedev-194)
Angular grid pruning method      GridPruning ... 4 (adaptive)
Weight generation scheme         WeightScheme... Becke
Basis function cutoff            BFCut       ... 1.0000e-11
Integration weight cutoff        WCut        ... 1.0000e-14
Angular grids for H and He will be reduced by one unit
Partially contracted basis set               ... on
Rotationally invariant grid construction     ... off

Total number of grid points                  ...    15239
Total number of batches                      ...      242
Average number of points per batch           ...       62
Average number of grid points per atom       ...     2540
UseSFitting                                  ... on

Time for X-Grid setup             =    0.065 sec

--------------
SCF ITERATIONS
--------------
ITER       Energy         Delta-E        Max-DP      RMS-DP      [F,P]     Damp
               ***  Starting incremental Fock matrix formation  ***
  0    -78.4254014331   0.000000000000 0.00158074  0.00015953  0.0054673 0.7000
                      *** Initiating the SOSCF procedure ***
                      *** Re-Reading the Fockian *** 
                      *** Removing any level shift *** 
ITER      Energy       Delta-E        Grad      Rot      Max-DP    RMS-DP
  1    -78.42546462  -0.0000631841  0.000875  0.000875  0.004457  0.000442
               *** Restarting incremental Fock matrix formation ***
  2    -78.42558949  -0.0001248707  0.001133  0.001426  0.003081  0.000176
  3    -78.42559078  -0.0000012923  0.000978  0.000675  0.001177  0.000079
  4    -78.42559783  -0.0000070466  0.000026  0.000061  0.000053  0.000005
  5    -78.42559783  -0.0000000009  0.000032  0.000049  0.000043  0.000002
  6    -78.42559783  -0.0000000045  0.000009  0.000011  0.000013  0.000001
  7    -78.42559783  -0.0000000011  0.000004  0.000003  0.000005  0.000000
                 **** Energy Check signals convergence ****
              ***Rediagonalizing the Fockian in SOSCF/NRSCF***

               *****************************************************
               *                     SUCCESS                       *
               *           SCF CONVERGED AFTER   8 CYCLES          *
               *****************************************************

Old exchange energy                            =     -2.926258674 Eh
New exchange energy                            =     -2.926276574 Eh
Exchange energy change after final integration =     -0.000017900 Eh
Total energy after final integration           =    -78.425615734 Eh
Final COS-X integration done in                =     0.080 sec
Total Energy       :          -78.42561573 Eh           -2134.06950 eV
  Last Energy change         ...   -1.7941e-10  Tolerance :   1.0000e-08
  Last MAX-Density change    ...    1.7764e-15  Tolerance :   1.0000e-07
             **** THE GBW FILE WAS UPDATED (r1_C2H4_conf0_opt_orca.gbw) ****
             **** DENSITY r1_C2H4_conf0_opt_orca.scfp WAS UPDATED ****
             **** ENERGY FILE WAS UPDATED (r1_C2H4_conf0_opt_orca.en.tmp) ****
             **** THE GBW FILE WAS UPDATED (r1_C2H4_conf0_opt_orca.gbw) ****
             **** DENSITY r1_C2H4_conf0_opt_orca.scfp WAS UPDATED ****
Total SCF time: 0 days 0 hours 0 min 1 sec 

Maximum memory used throughout the entire SCF-calculation: 44.0 MB


-------------------------------------------------------------------------------
                          DFT DISPERSION CORRECTION                            
                                                                               
                              DFTD3 V3.1  Rev 1                                
                          USING Becke-Johnson damping                          
-------------------------------------------------------------------------------
-------------------------   ----------------
Dispersion correction           -0.001899342
-------------------------   ----------------


-------------------------   --------------------
FINAL SINGLE POINT ENERGY       -78.427515075225
-------------------------   --------------------



           ************************************************************
           *        Program running with 8 parallel MPI-processes     *
           *              working on a common directory               *
           ************************************************************
------------------------------------------------------------------------------
                         ORCA SCF GRADIENT CALCULATION
------------------------------------------------------------------------------

 ... reading COSX grid (gridx3)
Gradient of the Kohn-Sham DFT energy:
Kohn-Sham wavefunction type      ... RKS
Hartree-Fock exchange scaling    ...    0.250
Number of operators              ...    1
Number of atoms                  ...    6
Basis set dimensions             ...   48
Integral neglect threshold       ... 2.5e-11
Integral primitive cutoff        ... 2.5e-12
SHARK Integral package           ... ON

Nuc. rep. gradient       (SHARK) ... done (  0.0 sec)
HCore & Overlap gradient (SHARK) ... done (  0.0 sec)
RI-J gradient            (SHARK) ... done (  0.1 sec)
COSX-gradient                    ... done (  0.1 sec)
Exchange-correlation gradient    ... done
Dispersion correction            ... done

------------------
CARTESIAN GRADIENT
------------------

   1   C   :    0.003287905    0.001122061    0.000264544
   2   C   :   -0.003430294   -0.001155086   -0.000259103
   3   H   :   -0.000455667   -0.000251257    0.000012799
   4   H   :   -0.000512975   -0.000053778   -0.000086054
   5   H   :    0.000512185    0.000303105   -0.000034104
   6   H   :    0.000599003    0.000034707    0.000101744

Difference to translation invariance:
           :    0.0000001568   -0.0000002490   -0.0000001749

Difference to rotation invariance:
           :   -0.0000322591    0.0000219595   -0.0001878643

Norm of the cartesian gradient     ...    0.0051553557
RMS gradient                       ...    0.0012151290
MAX gradient                       ...    0.0034302938

-------
TIMINGS
-------

Total SCF gradient time            ...        0.409 sec

One electron gradient       ....       0.003 sec  (  0.6%)
RI-J Coulomb gradient       ....       0.059 sec  ( 14.4%)
COSX gradient               ....       0.110 sec  ( 26.8%)
XC gradient                 ....       0.074 sec  ( 18.1%)

Maximum memory used throughout the entire SCFGRAD-calculation: 33.5 MB
------------------------------------------------------------------------------
                         ORCA GEOMETRY RELAXATION STEP
------------------------------------------------------------------------------

Reading the OPT-File                    .... done
Getting information on internals        .... done
Copying old internal coords+grads       .... done
Making the new internal coordinates     .... (new redundants).... done
Validating the new internal coordinates .... (new redundants).... done
Calculating the B-matrix                .... done
Calculating the G,G- and P matrices     .... done
Transforming gradient to internals      .... done
Projecting the internal gradient        .... done
Number of atoms                         ....   6
Number of internal coordinates          ....  15
Current Energy                          ....   -78.427515075 Eh
Current gradient norm                   ....     0.005155356 Eh/bohr
Maximum allowed component of the step   ....  0.300
Current trust radius                    ....  0.300
Updating the Hessian (BFGS)             .... done
Forming the augmented Hessian           .... done
Diagonalizing the augmented Hessian     .... done
Last element of RFO vector              ....  0.999986179
Lowest eigenvalues of augmented Hessian:
 -0.000013395  0.048633656  0.048634022  0.048634926  0.315663193
Length of the computed step             ....  0.005257541
The final length of the internal step   ....  0.005257541
Converting the step to cartesian space:
 Initial RMS(Int)=    0.0013574912
Transforming coordinates:
 Iter   0:  RMS(Cart)=    0.0007939940 RMS(Int)=    2.2942179468
 Iter   1:  RMS(Cart)=    0.0000007130 RMS(Int)=    0.0000007782
 Iter   2:  RMS(Cart)=    0.0000000008 RMS(Int)=    0.0000000008
done
Storing new coordinates                 .... done

                                .--------------------.
          ----------------------|Geometry convergence|-------------------------
          Item                value                   Tolerance       Converged
          ---------------------------------------------------------------------
          Energy change      -0.0009624517            0.0000300000      NO
          RMS gradient        0.0007229743            0.0005000000      NO
          MAX gradient        0.0024658250            0.0020000000      NO
          RMS step            0.0013574912            0.0070000000      YES
          MAX step            0.0032223142            0.0100000000      YES
          ........................................................
          Max(Bonds)      0.0017      Max(Angles)    0.15
          Max(Dihed)        0.01      Max(Improp)    0.00
          ---------------------------------------------------------------------

       The step convergence is overachieved with 
       reasonable convergence on the gradient
       Convergence will therefore be signaled now


                    ***********************HURRAY********************
                    ***        THE OPTIMIZATION HAS CONVERGED     ***
                    *************************************************


    ---------------------------------------------------------------------------
                         Redundant Internal Coordinates

                          --- Optimized Parameters ---  
                            (Angstroem and degrees)

        Definition                    OldVal   dE/dq     Step     FinalVal
    ----------------------------------------------------------------------------
     1. B(C   1,C   0)                1.3282 -0.002466  0.0017    1.3300   
     2. B(H   2,C   0)                1.0947  0.000172 -0.0001    1.0945   
     3. B(H   3,C   0)                1.0947  0.000172 -0.0001    1.0945   
     4. B(H   4,C   1)                1.0947  0.000174 -0.0001    1.0946   
     5. B(H   5,C   1)                1.0947  0.000176 -0.0001    1.0946   
     6. A(H   2,C   0,H   3)          116.21 -0.000679    0.12    116.33   
     7. A(C   1,C   0,H   2)          121.90  0.000356   -0.07    121.83   
     8. A(C   1,C   0,H   3)          121.90  0.000323   -0.06    121.84   
     9. A(H   4,C   1,H   5)          116.14 -0.000795    0.15    116.29   
    10. A(C   0,C   1,H   5)          121.93  0.000390   -0.07    121.86   
    11. A(C   0,C   1,H   4)          121.92  0.000404   -0.07    121.85   
    12. D(H   4,C   1,C   0,H   3)      0.03 -0.000002    0.00      0.03   
    13. D(H   5,C   1,C   0,H   2)     -0.03  0.000001   -0.00     -0.03   
    14. D(H   5,C   1,C   0,H   3)    179.99 -0.000010    0.01    180.00   
    15. D(H   4,C   1,C   0,H   2)   -179.99  0.000008   -0.01   -180.00   
    ----------------------------------------------------------------------------
                 *******************************************************
                 *** FINAL ENERGY EVALUATION AT THE STATIONARY POINT ***
                 ***               (AFTER    2 CYCLES)               ***
                 *******************************************************
---------------------------------
CARTESIAN COORDINATES (ANGSTROEM)
---------------------------------
  C     -0.629990   -0.207289   -0.050239
  C      0.629717    0.207230    0.050164
  H     -1.402198    0.403208   -0.528751
  H     -0.951527   -1.177417    0.341526
  H      1.402176   -0.403020    0.528645
  H      0.951721    1.177289   -0.341445

----------------------------
CARTESIAN COORDINATES (A.U.)
----------------------------
  NO LB      ZA    FRAG     MASS         X           Y           Z
   0 C     6.0000    0    12.011   -1.190508   -0.391720   -0.094938
   1 C     6.0000    0    12.011    1.189993    0.391607    0.094796
   2 H     1.0000    0     1.008   -2.649770    0.761953   -0.999195
   3 H     1.0000    0     1.008   -1.798125   -2.224996    0.645391
   4 H     1.0000    0     1.008    2.649728   -0.761598    0.998993
   5 H     1.0000    0     1.008    1.798493    2.224754   -0.645237

--------------------------------
INTERNAL COORDINATES (ANGSTROEM)
--------------------------------
 C      0   0   0     0.000000000000     0.00000000     0.00000000
 C      1   0   0     1.329950773042     0.00000000     0.00000000
 H      1   2   0     1.094525682077   121.83085266     0.00000000
 H      1   2   3     1.094538206416   121.83539464   180.03046049
 H      2   1   3     1.094550566823   121.84926853   179.99849785
 H      2   1   3     1.094558754071   121.86140845   359.97018677

---------------------------
INTERNAL COORDINATES (A.U.)
---------------------------
 C      0   0   0     0.000000000000     0.00000000     0.00000000
 C      1   0   0     2.513242732646     0.00000000     0.00000000
 H      1   2   0     2.068353785670   121.83085266     0.00000000
 H      1   2   3     2.068377453240   121.83539464   180.03046049
 H      2   1   3     2.068400811023   121.84926853   179.99849785
 H      2   1   3     2.068416282680   121.86140845   359.97018677

---------------------
BASIS SET INFORMATION
---------------------
There are 2 groups of distinct atoms

 Group   1 Type C   : 7s4p1d contracted to 3s2p1d pattern {511/31/1}
 Group   2 Type H   : 4s1p contracted to 2s1p pattern {31/1}

Atom   0C    basis set group =>   1
Atom   1C    basis set group =>   1
Atom   2H    basis set group =>   2
Atom   3H    basis set group =>   2
Atom   4H    basis set group =>   2
Atom   5H    basis set group =>   2
---------------------------------
AUXILIARY/J BASIS SET INFORMATION
---------------------------------
There are 2 groups of distinct atoms

 Group   1 Type C   : 12s5p4d2f1g contracted to 6s4p3d1f1g pattern {711111/2111/211/2/1}
 Group   2 Type H   : 5s2p1d contracted to 3s1p1d pattern {311/2/1}

Atom   0C    basis set group =>   1
Atom   1C    basis set group =>   1
Atom   2H    basis set group =>   2
Atom   3H    basis set group =>   2
Atom   4H    basis set group =>   2
Atom   5H    basis set group =>   2


           ************************************************************
           *        Program running with 8 parallel MPI-processes     *
           *              working on a common directory               *
           ************************************************************
------------------------------------------------------------------------------
                           ORCA GTO INTEGRAL CALCULATION
                           -- RI-GTO INTEGRALS CHOSEN --
------------------------------------------------------------------------------
------------------------------------------------------------------------------
                   ___                                                        
                  /   \      - P O W E R E D   B Y -                         
                 /     \                                                     
                 |  |  |   _    _      __       _____    __    __             
                 |  |  |  | |  | |    /  \     |  _  \  |  |  /  |          
                  \  \/   | |  | |   /    \    | | | |  |  | /  /          
                 / \  \   | |__| |  /  /\  \   | |_| |  |  |/  /          
                |  |  |   |  __  | /  /__\  \  |    /   |      \           
                |  |  |   | |  | | |   __   |  |    \   |  |\   \          
                \     /   | |  | | |  |  |  |  | |\  \  |  | \   \       
                 \___/    |_|  |_| |__|  |__|  |_| \__\ |__|  \__/        
                                                                              
                      - O R C A' S   B I G   F R I E N D -                    
                                      &                                       
                       - I N T E G R A L  F E E D E R -                       
                                                                              
 v1 FN, 2020, v2 2021                                                         
------------------------------------------------------------------------------


Reading SHARK input file r1_C2H4_conf0_opt_orca.SHARKINP.tmp ... ok
----------------------
SHARK INTEGRAL PACKAGE
----------------------

Number of atoms                             ...      6
Number of basis functions                   ...     48
Number of shells                            ...     24
Maximum angular momentum                    ...      2
Integral batch strategy                     ... SHARK/LIBINT Hybrid
RI-J (if used) integral strategy            ... SPLIT-RIJ (Revised 2003 algorithm where possible)
Printlevel                                  ...      1
Contraction scheme used                     ... SEGMENTED contraction
Coulomb Range Separation                    ... NOT USED
Exchange Range Separation                   ... NOT USED
Finite Nucleus Model                        ... NOT USED
Auxiliary Coulomb fitting basis             ... AVAILABLE
   # of basis functions in Aux-J            ...    142
   # of shells in Aux-J                     ...     50
   Maximum angular momentum in Aux-J        ...      4
Auxiliary J/K fitting basis                 ... NOT available
Auxiliary Correlation fitting basis         ... NOT available
Auxiliary 'external' fitting basis          ... NOT available
Integral threshold                          ...     2.500000e-11
Primitive cut-off                           ...     2.500000e-12
Primitive pair pre-selection threshold      ...     2.500000e-12

Calculating pre-screening integrals         ... done (  0.0 sec) Dimension = 24
Organizing shell pair data                  ... done (  0.0 sec)
Shell pair information
Total number of shell pairs                 ...       300
Shell pairs after pre-screening             ...       300
Total number of primitive shell pairs       ...      1028
Primitive shell pairs kept                  ...       935
          la=0 lb=0:    105 shell pairs
          la=1 lb=0:    112 shell pairs
          la=1 lb=1:     36 shell pairs
          la=2 lb=0:     28 shell pairs
          la=2 lb=1:     16 shell pairs
          la=2 lb=2:      3 shell pairs

[...]
Number of eigenvalues below threshold      ... 0
Time for construction of square roots      ...    0.002 sec
Total time needed                          ...    0.004 sec

---------------------
INITIAL GUESS: MOREAD
---------------------
Guess MOs are being read from file: r1_C2H4_conf0_opt_orca.gbw
Input Geometry matches current geometry (good)
Input basis set matches current basis set (good)
MOs were renormalized
MOs were reorthogonalized (Cholesky)
                      ------------------
                      INITIAL GUESS DONE (   0.0 sec)
                      ------------------
-------------------
DFT GRID GENERATION
-------------------

General Integration Accuracy     IntAcc      ... 4.388
Radial Grid Type                 RadialGrid  ... OptM3 with GC (2021)
Angular Grid (max. ang.)         AngularGrid ... 4 (Lebedev-302)
Angular grid pruning method      GridPruning ... 4 (adaptive)
Weight generation scheme         WeightScheme... Becke
Basis function cutoff            BFCut       ... 1.0000e-11
Integration weight cutoff        WCut        ... 1.0000e-14
Angular grids for H and He will be reduced by one unit
Partially contracted basis set               ... off
Rotationally invariant grid construction     ... off

Total number of grid points                  ...    25320
Total number of batches                      ...      400
Average number of points per batch           ...       63
Average number of grid points per atom       ...     4220
Time for grid setup =    0.096 sec

--------------------
COSX GRID GENERATION
--------------------

GRIDX 1
-------
General Integration Accuracy     IntAcc      ... 3.816
Radial Grid Type                 RadialGrid  ... OptM3 with GC (2021)
Angular Grid (max. ang.)         AngularGrid ... 1 (Lebedev-50)
Angular grid pruning method      GridPruning ... 4 (adaptive)
Weight generation scheme         WeightScheme... Becke
Basis function cutoff            BFCut       ... 1.0000e-11
Integration weight cutoff        WCut        ... 1.0000e-14
Angular grids for H and He will be reduced by one unit
Partially contracted basis set               ... on
Rotationally invariant grid construction     ... off

Total number of grid points                  ...     3282
Total number of batches                      ...       54
Average number of points per batch           ...       60
Average number of grid points per atom       ...      547
UseSFitting                                  ... on

GRIDX 2
-------
General Integration Accuracy     IntAcc      ... 4.020
Radial Grid Type                 RadialGrid  ... OptM3 with GC (2021)
Angular Grid (max. ang.)         AngularGrid ... 2 (Lebedev-110)
Angular grid pruning method      GridPruning ... 4 (adaptive)
Weight generation scheme         WeightScheme... Becke
Basis function cutoff            BFCut       ... 1.0000e-11
Integration weight cutoff        WCut        ... 1.0000e-14
Angular grids for H and He will be reduced by one unit
Partially contracted basis set               ... on
Rotationally invariant grid construction     ... off

Total number of grid points                  ...     6906
Total number of batches                      ...      112
Average number of points per batch           ...       61
Average number of grid points per atom       ...     1151
UseSFitting                                  ... on

GRIDX 3
-------
General Integration Accuracy     IntAcc      ... 4.338
Radial Grid Type                 RadialGrid  ... OptM3 with GC (2021)
Angular Grid (max. ang.)         AngularGrid ... 3 (Lebedev-194)
Angular grid pruning method      GridPruning ... 4 (adaptive)
Weight generation scheme         WeightScheme... Becke
Basis function cutoff            BFCut       ... 1.0000e-11
Integration weight cutoff        WCut        ... 1.0000e-14
Angular grids for H and He will be reduced by one unit
Partially contracted basis set               ... on
Rotationally invariant grid construction     ... off

Total number of grid points                  ...    15240
Total number of batches                      ...      242
Average number of points per batch           ...       62
Average number of grid points per atom       ...     2540
UseSFitting                                  ... on

Time for X-Grid setup             =    0.067 sec

--------------
SCF ITERATIONS
--------------
ITER       Energy         Delta-E        Max-DP      RMS-DP      [F,P]     Damp
               ***  Starting incremental Fock matrix formation  ***
                      *** Initiating the SOSCF procedure ***
                      *** Re-Reading the Fockian *** 
                      *** Removing any level shift *** 
ITER      Energy       Delta-E        Grad      Rot      Max-DP    RMS-DP
  0    -78.42560641 -78.4256064101  0.000322  0.000322  0.000383  0.000031
               *** Restarting incremental Fock matrix formation ***
  1    -78.42560737  -0.0000009570  0.000123  0.000191  0.000222  0.000016
  2    -78.42560744  -0.0000000735  0.000077  0.000064  0.000078  0.000006
  3    -78.42560747  -0.0000000341  0.000009  0.000009  0.000012  0.000001
                 **** Energy Check signals convergence ****
              ***Rediagonalizing the Fockian in SOSCF/NRSCF***

               *****************************************************
               *                     SUCCESS                       *
               *           SCF CONVERGED AFTER   4 CYCLES          *
               *****************************************************

Old exchange energy                            =     -2.926015479 Eh
New exchange energy                            =     -2.926033255 Eh
Exchange energy change after final integration =     -0.000017776 Eh
Total energy after final integration           =    -78.425625250 Eh
Final COS-X integration done in                =     0.079 sec

----------------
TOTAL SCF ENERGY
----------------

Total Energy       :          -78.42562525 Eh           -2134.06976 eV

Components:
Nuclear Repulsion  :           33.24845060 Eh             904.73634 eV
Electronic Energy  :         -111.67407585 Eh           -3038.80609 eV
One Electron Energy:         -169.95975612 Eh           -4624.84009 eV
Two Electron Energy:           58.28568027 Eh            1586.03399 eV
Max COSX asymmetry :            0.00000134 Eh               0.00004 eV

Virial components:
Potential Energy   :         -155.89465404 Eh           -4242.10920 eV
Kinetic Energy     :           77.46902879 Eh            2108.03944 eV
Virial Ratio       :            2.01234811


DFT components:
N(Alpha)           :        8.000003422234 electrons
N(Beta)            :        8.000003422234 electrons
N(Total)           :       16.000006844467 electrons
E(X)               :       -8.732932913429 Eh       
E(C)               :       -0.500398910044 Eh       
E(XC)              :       -9.233331823473 Eh       
DFET-embed. en.    :        0.000000000000 Eh       

---------------
SCF CONVERGENCE
---------------

  Last Energy change         ...    3.4500e-10  Tolerance :   1.0000e-08
  Last MAX-Density change    ...    1.9984e-15  Tolerance :   1.0000e-07
  Last RMS-Density change    ...    5.7386e-17  Tolerance :   5.0000e-09
  Last Orbital Gradient      ...    1.3596e-06  Tolerance :   1.0000e-05
  Last Orbital Rotation      ...    4.0523e-06  Tolerance :   1.0000e-05

             **** THE GBW FILE WAS UPDATED (r1_C2H4_conf0_opt_orca.gbw) ****
             **** DENSITY r1_C2H4_conf0_opt_orca.scfp WAS UPDATED ****
             **** ENERGY FILE WAS UPDATED (r1_C2H4_conf0_opt_orca.en.tmp) ****
             **** THE GBW FILE WAS UPDATED (r1_C2H4_conf0_opt_orca.gbw) ****
             **** DENSITY r1_C2H4_conf0_opt_orca.scfp WAS UPDATED ****
----------------
ORBITAL ENERGIES
----------------

  NO   OCC          E(Eh)            E(eV) 
   0   2.0000     -10.236300      -278.5439 
   1   2.0000     -10.235506      -278.5223 
   2   2.0000      -0.773715       -21.0539 
   3   2.0000      -0.587700       -15.9921 
   4   2.0000      -0.479168       -13.0388 
   5   2.0000      -0.432500       -11.7689 
   6   2.0000      -0.362532        -9.8650 
   7   2.0000      -0.286827        -7.8050 
   8   0.0000       0.013857         0.3771 
   9   0.0000       0.096434         2.6241 
  10   0.0000       0.114592         3.1182 
  11   0.0000       0.128263         3.4902 
  12   0.0000       0.200318         5.4509 
  13   0.0000       0.335912         9.1406 
  14   0.0000       0.408483        11.1154 
  15   0.0000       0.445489        12.1224 
  16   0.0000       0.458735        12.4828 
  17   0.0000       0.508530        13.8378 
  18   0.0000       0.565094        15.3770 
  19   0.0000       0.598049        16.2737 
  20   0.0000       0.664445        18.0805 
  21   0.0000       0.687331        18.7032 
  22   0.0000       0.695893        18.9362 
  23   0.0000       0.707767        19.2593 
  24   0.0000       0.837112        22.7790 
  25   0.0000       1.058707        28.8089 
  26   0.0000       1.181475        32.1496 
  27   0.0000       1.244044        33.8522 
  28   0.0000       1.276240        34.7282 
  29   0.0000       1.589696        43.2578 
  30   0.0000       1.634366        44.4734 
  31   0.0000       1.641351        44.6634 
  32   0.0000       1.709421        46.5157 
  33   0.0000       1.754473        47.7416 
  34   0.0000       1.770647        48.1818 
  35   0.0000       1.824751        49.6540 
  36   0.0000       1.926165        52.4136 
  37   0.0000       2.070985        56.3544 
  38   0.0000       2.169602        59.0379 
  39   0.0000       2.240554        60.9686 
  40   0.0000       2.388131        64.9844 
  41   0.0000       2.388846        65.0038 
  42   0.0000       2.490327        67.7652 
  43   0.0000       2.696024        73.3626 
  44   0.0000       2.802096        76.2489 
  45   0.0000       2.835381        77.1547 
  46   0.0000       3.066433        83.4419 
  47   0.0000       3.342035        90.9414 

                    ********************************
                    * MULLIKEN POPULATION ANALYSIS *
                    ********************************

-----------------------
MULLIKEN ATOMIC CHARGES
-----------------------
   0 C :   -0.115572
   1 C :   -0.115709
   2 H :    0.057756
   3 H :    0.057906
   4 H :    0.057733
   5 H :    0.057886
Sum of atomic charges:   -0.0000000

--------------------------------
MULLIKEN REDUCED ORBITAL CHARGES
--------------------------------
  0 C s       :     3.146911  s :     3.146911
      pz      :     0.982230  p :     2.941835
      px      :     0.983742
      py      :     0.975864
      dz2     :     0.001359  d :     0.026825
      dxz     :     0.006605
      dyz     :     0.002029
      dx2y2   :     0.007630
      dxy     :     0.009203
  1 C s       :     3.146973  s :     3.146973
      pz      :     0.982238  p :     2.941910
      px      :     0.983723
      py      :     0.975949
      dz2     :     0.001359  d :     0.026825
      dxz     :     0.006606
      dyz     :     0.002027
      dx2y2   :     0.007628
      dxy     :     0.009206
  2 H s       :     0.918270  s :     0.918270
      pz      :     0.006698  p :     0.023975
      px      :     0.009478
      py      :     0.007799
  3 H s       :     0.918118  s :     0.918118
      pz      :     0.006004  p :     0.023975
      px      :     0.004951
      py      :     0.013020
  4 H s       :     0.918294  s :     0.918294
      pz      :     0.006696  p :     0.023973
      px      :     0.009480
      py      :     0.007797
  5 H s       :     0.918140  s :     0.918140
      pz      :     0.006002  p :     0.023973
      px      :     0.004953
      py      :     0.013018


                     *******************************
                     * LOEWDIN POPULATION ANALYSIS *
                     *******************************

----------------------
LOEWDIN ATOMIC CHARGES
----------------------
   0 C :   -0.060565
   1 C :   -0.060550
   2 H :    0.030274
   3 H :    0.030307
   4 H :    0.030251
   5 H :    0.030282

-------------------------------
LOEWDIN REDUCED ORBITAL CHARGES
-------------------------------
  0 C s       :     2.894808  s :     2.894808
      pz      :     0.981282  p :     3.096322
      px      :     1.078305
      py      :     1.036736
      dz2     :     0.003818  d :     0.069435
      dxz     :     0.014699
      dyz     :     0.004875
      dx2y2   :     0.021135
      dxy     :     0.024907
  1 C s       :     2.894817  s :     2.894817
      pz      :     0.981271  p :     3.096296
      px      :     1.078270
      py      :     1.036755
      dz2     :     0.003818  d :     0.069436
      dxz     :     0.014704
      dyz     :     0.004871
      dx2y2   :     0.021129
      dxy     :     0.024914
  2 H s       :     0.902076  s :     0.902076
      pz      :     0.019566  p :     0.067650
      px      :     0.025759
      py      :     0.022325
  3 H s       :     0.902043  s :     0.902043
      pz      :     0.017627  p :     0.067650
      px      :     0.013077
      py      :     0.036947
  4 H s       :     0.902105  s :     0.902105
      pz      :     0.019562  p :     0.067643
      px      :     0.025766
      py      :     0.022315
  5 H s       :     0.902073  s :     0.902073
      pz      :     0.017620  p :     0.067645
      px      :     0.013084
      py      :     0.036941


                      *****************************
                      * MAYER POPULATION ANALYSIS *
                      *****************************

  NA   - Mulliken gross atomic population
  ZA   - Total nuclear charge
  QA   - Mulliken gross atomic charge
  VA   - Mayer's total valence
  BVA  - Mayer's bonded valence
  FA   - Mayer's free valence

  ATOM       NA         ZA         QA         VA         BVA        FA
  0 C      6.1156     6.0000    -0.1156     4.0028     4.0028    -0.0000
  1 C      6.1157     6.0000    -0.1157     4.0028     4.0028    -0.0000
  2 H      0.9422     1.0000     0.0578     0.9745     0.9745    -0.0000
  3 H      0.9421     1.0000     0.0579     0.9745     0.9745    -0.0000
  4 H      0.9423     1.0000     0.0577     0.9745     0.9745     0.0000
  5 H      0.9421     1.0000     0.0579     0.9745     0.9745    -0.0000

  Mayer bond orders larger than 0.100000
B(  0-C ,  1-C ) :   2.0653 B(  0-C ,  2-H ) :   0.9635 B(  0-C ,  3-H ) :   0.9635 
B(  1-C ,  4-H ) :   0.9635 B(  1-C ,  5-H ) :   0.9635 


------------------
HIRSHFELD ANALYSIS
------------------

Total integrated alpha density =      8.000003422
Total integrated beta density  =      8.000003422

  ATOM     CHARGE      SPIN    
   0 C   -0.070626    0.000000
   1 C   -0.070615    0.000000
   2 H    0.035309    0.000000
   3 H    0.035331    0.000000
   4 H    0.035285    0.000000
   5 H    0.035310    0.000000

  TOTAL  -0.000007    0.000000

-------
TIMINGS
-------

Total SCF time: 0 days 0 hours 0 min 0 sec 

Total time                  ....       0.895 sec
Sum of individual times     ....       0.795 sec  ( 88.8%)

Fock matrix formation       ....       0.593 sec  ( 66.3%)
  Split-RI-J                ....       0.150 sec  ( 25.2% of F)
  Chain of spheres X        ....       0.323 sec  ( 54.5% of F)
  XC integration            ....       0.109 sec  ( 18.4% of F)
    Basis function eval.    ....       0.031 sec  ( 28.3% of XC)
    Density eval.           ....       0.015 sec  ( 14.0% of XC)
    XC-Functional eval.     ....       0.017 sec  ( 15.9% of XC)
    XC-Potential eval.      ....       0.011 sec  ( 10.1% of XC)
Diagonalization             ....       0.002 sec  (  0.2%)
Density matrix formation    ....       0.001 sec  (  0.1%)
Population analysis         ....       0.021 sec  (  2.4%)
Initial guess               ....       0.004 sec  (  0.5%)
Orbital Transformation      ....       0.000 sec  (  0.0%)
Orbital Orthonormalization  ....       0.001 sec  (  0.1%)
DIIS solution               ....       0.002 sec  (  0.2%)
SOSCF solution              ....       0.009 sec  (  1.0%)
Grid generation             ....       0.163 sec  ( 18.2%)

Maximum memory used throughout the entire SCF-calculation: 44.0 MB


-------------------------------------------------------------------------------
                          DFT DISPERSION CORRECTION                            
                                                                               
                              DFTD3 V3.1  Rev 1                                
                          USING Becke-Johnson damping                          
-------------------------------------------------------------------------------
The PBE0 functional is recognized
Active option DFTDOPT                   ...         4   

molecular C6(AA) [au] = 294.552747 


            DFT-D V3
 parameters
 s6 scaling factor         :     1.0000 
 a1 scaling factor         :     0.4145 
 s8 scaling factor         :     1.2177 
 a2 scaling factor         :     4.8593 
 ad hoc parameters k1-k3   :    16.0000     1.3333    -4.0000 

 Edisp/kcal,au: -1.191825499329  -0.001899294627 
 E6   /kcal   :  -0.781202563 
 E8   /kcal   :  -0.410622937 
 % E8         :  34.453276680 

-------------------------   ----------------
Dispersion correction           -0.001899295
-------------------------   ----------------


-------------------------   --------------------
FINAL SINGLE POINT ENERGY       -78.427524545019
-------------------------   --------------------

                                *** OPTIMIZATION RUN DONE ***

                            ***************************************
                            *     ORCA property calculations      *
                            ***************************************

                                    ---------------------
                                    Active property flags
                                    ---------------------
   (+) Dipole Moment


------------------------------------------------------------------------------
                       ORCA ELECTRIC PROPERTIES CALCULATION
------------------------------------------------------------------------------

Dipole Moment Calculation                       ... on
Quadrupole Moment Calculation                   ... off
Polarizability Calculation                      ... off
GBWName                                         ... r1_C2H4_conf0_opt_orca.gbw
Electron density                                ... r1_C2H4_conf0_opt_orca.scfp
The origin for moment calculation is the CENTER OF MASS  = (-0.000209, -0.000044 -0.000062)

-------------
DIPOLE MOMENT
-------------
                                X             Y             Z
Electronic contribution:     -0.00050      -0.00012      -0.00008
Nuclear contribution   :      0.00058       0.00014       0.00010
                        -----------------------------------------
Total Dipole Moment    :      0.00008       0.00003       0.00002
                        -----------------------------------------
Magnitude (a.u.)       :      0.00008
Magnitude (Debye)      :      0.00021



--------------------
Rotational spectrum 
--------------------
 
Rotational constants in cm-1:     4.836135     1.000652     0.829101 
Rotational constants in MHz : 144983.681863 29998.790521 24855.833295 

 Dipole components along the rotational axes: 
x,y,z [a.u.] :     0.000082    -0.000004     0.000009 
x,y,z [Debye]:     0.000208    -0.000011     0.000023 

 

Timings for individual modules:

Sum of individual times         ...        7.401 sec (=   0.123 min)
GTO integral calculation        ...        1.322 sec (=   0.022 min)  17.9 %
SCF iterations                  ...        4.434 sec (=   0.074 min)  59.9 %
SCF Gradient evaluation         ...        1.582 sec (=   0.026 min)  21.4 %
Geometry relaxation             ...        0.063 sec (=   0.001 min)   0.9 %
                             ****ORCA TERMINATED NORMALLY****
TOTAL RUN TIME: 0 days 0 hours 0 minutes 8 seconds 274 msec
