
                                 *****************
                                 * O   R   C   A *
                                 *****************

                                            #,                                       
                                            ###                                      
                                            ####                                     
                                            #####                                    
                                            ######                                   
                                           ########,                                 
                                     ,,################,,,,,                         
                               ,,#################################,,                 
                          ,,##########################################,,             
                       ,#########################################, ''#####,          
                    ,#############################################,,   '####,        
                  ,##################################################,,,,####,       
                ,###########''''           ''''###############################       
              ,#####''   ,,,,##########,,,,          '''####'''          '####       
            ,##' ,,,,###########################,,,                        '##       
           ' ,,###''''                  '''############,,,                           
         ,,##''                                '''############,,,,        ,,,,,,###''
      ,#''                                            '''#######################'''  
     '                                                          ''''####''''         
             ,#######,   #######,   ,#######,      ##                                
            ,#'     '#,  ##    ##  ,#'     '#,    #''#        ######   ,####,        
            ##       ##  ##   ,#'  ##            #'  '#       #        #'  '#        
            ##       ##  #######   ##           ,######,      #####,   #    #        
            '#,     ,#'  ##    ##  '#,     ,#' ,#      #,         ##   #,  ,#        
             '#######'   ##     ##  '#######'  #'      '#     #####' # '####'        



                  #######################################################
                  #                        -***-                        #
                  #          Department of theory and spectroscopy      #
                  #    Directorship and core code : Frank Neese         #
                  #        Max Planck Institute fuer Kohlenforschung    #
                  #                Kaiser Wilhelm Platz 1               #
                  #                 D-45470 Muelheim/Ruhr               #
                  #                      Germany                        #
                  #                                                     #
                  #                  All rights reserved                #
                  #                        -***-                        #
                  #######################################################


                         Program Version 5.0.4 -  RELEASE  -


 With contributions from (in alphabetic order):
   Daniel Aravena         : Magnetic Suceptibility
   Michael Atanasov       : Ab Initio Ligand Field Theory (pilot matlab implementation)
   Alexander A. Auer      : GIAO ZORA, VPT2 properties, NMR spectrum
   Ute Becker             : Parallelization
   Giovanni Bistoni       : ED, misc. LED, open-shell LED, HFLD
   Martin Brehm           : Molecular dynamics
   Dmytro Bykov           : SCF Hessian
   Vijay G. Chilkuri      : MRCI spin determinant printing, contributions to CSF-ICE
   Dipayan Datta          : RHF DLPNO-CCSD density
   Achintya Kumar Dutta   : EOM-CC, STEOM-CC
   Dmitry Ganyushin       : Spin-Orbit,Spin-Spin,Magnetic field MRCI
   Miquel Garcia          : C-PCM and meta-GGA Hessian, CC/C-PCM, Gaussian charge scheme
   Yang Guo               : DLPNO-NEVPT2, F12-NEVPT2, CIM, IAO-localization
   Andreas Hansen         : Spin unrestricted coupled pair/coupled cluster methods
   Benjamin Helmich-Paris : MC-RPA, TRAH-SCF, COSX integrals
   Lee Huntington         : MR-EOM, pCC
   Robert Izsak           : Overlap fitted RIJCOSX, COSX-SCS-MP3, EOM
   Marcus Kettner         : VPT2
   Christian Kollmar      : KDIIS, OOCD, Brueckner-CCSD(T), CCSD density, CASPT2, CASPT2-K
   Simone Kossmann        : Meta GGA functionals, TD-DFT gradient, OOMP2, MP2 Hessian
   Martin Krupicka        : Initial AUTO-CI
   Lucas Lang             : DCDCAS
   Marvin Lechner         : AUTO-CI (C++ implementation), FIC-MRCC
   Dagmar Lenk            : GEPOL surface, SMD
   Dimitrios Liakos       : Extrapolation schemes; Compound Job, initial MDCI parallelization
   Dimitrios Manganas     : Further ROCIS development; embedding schemes
   Dimitrios Pantazis     : SARC Basis sets
   Anastasios Papadopoulos: AUTO-CI, single reference methods and gradients
   Taras Petrenko         : DFT Hessian,TD-DFT gradient, ASA, ECA, R-Raman, ABS, FL, XAS/XES, NRVS
   Peter Pinski           : DLPNO-MP2, DLPNO-MP2 Gradient
   Christoph Reimann      : Effective Core Potentials
   Marius Retegan         : Local ZFS, SOC
   Christoph Riplinger    : Optimizer, TS searches, QM/MM, DLPNO-CCSD(T), (RO)-DLPNO pert. Triples
   Tobias Risthaus        : Range-separated hybrids, TD-DFT gradient, RPA, STAB
   Michael Roemelt        : Original ROCIS implementation
   Masaaki Saitow         : Open-shell DLPNO-CCSD energy and density
   Barbara Sandhoefer     : DKH picture change effects
   Avijit Sen             : IP-ROCIS
   Kantharuban Sivalingam : CASSCF convergence, NEVPT2, FIC-MRCI
   Bernardo de Souza      : ESD, SOC TD-DFT
   Georgi Stoychev        : AutoAux, RI-MP2 NMR, DLPNO-MP2 response
   Willem Van den Heuvel  : Paramagnetic NMR
   Boris Wezisla          : Elementary symmetry handling
   Frank Wennmohs         : Technical directorship


 We gratefully acknowledge several colleagues who have allowed us to
 interface, adapt or use parts of their codes:
   Stefan Grimme, W. Hujo, H. Kruse, P. Pracht,  : VdW corrections, initial TS optimization,
                  C. Bannwarth, S. Ehlert          DFT functionals, gCP, sTDA/sTD-DF
   Ed Valeev, F. Pavosevic, A. Kumar             : LibInt (2-el integral package), F12 methods
   Garnet Chan, S. Sharma, J. Yang, R. Olivares  : DMRG
   Ulf Ekstrom                                   : XCFun DFT Library
   Mihaly Kallay                                 : mrcc  (arbitrary order and MRCC methods)
   Jiri Pittner, Ondrej Demel                    : Mk-CCSD
   Frank Weinhold                                : gennbo (NPA and NBO analysis)
   Christopher J. Cramer and Donald G. Truhlar   : smd solvation model
   Lars Goerigk                                  : TD-DFT with DH, B97 family of functionals
   V. Asgeirsson, H. Jonsson                     : NEB implementation
   FAccTs GmbH                                   : IRC, NEB, NEB-TS, DLPNO-Multilevel, CI-OPT
                                                   MM, QMMM, 2- and 3-layer-ONIOM, Crystal-QMMM,
                                                   LR-CPCM, SF, NACMEs, symmetry and pop. for TD-DFT,
                                                   nearIR, NL-DFT gradient (VV10), updates on ESD,
                                                   ML-optimized integration grids
   S Lehtola, MJT Oliveira, MAL Marques          : LibXC Library
   Liviu Ungur et al                             : ANISO software


 Your calculation uses the libint2 library for the computation of 2-el integrals
 For citations please refer to: http://libint.valeyev.net

 Your ORCA version has been built with support for libXC version: 5.1.0
 For citations please refer to: https://tddft.org/programs/libxc/

 This ORCA versions uses:
   CBLAS   interface :  Fast vector & matrix operations
   LAPACKE interface :  Fast linear algebra routines
   SCALAPACK package :  Parallel linear algebra routines
   Shared memory     :  Shared parallel matrices
   BLAS/LAPACK       :  OpenBLAS 0.3.15  USE64BITINT DYNAMIC_ARCH NO_AFFINITY SkylakeX SINGLE_THREADED
        Core in use  :  SkylakeX
   Copyright (c) 2011-2014, The OpenBLAS Project


Your calculation utilizes the atom-pairwise dispersion correction
with the Becke-Johnson damping scheme (D3BJ)
Cite in your paper:
S.Grimme, S.Ehrlich, L.Goerigk, J Comput Chem, (2011), 32, 1456–1465 
S.Grimme, J.Antony, S.Ehrlich and H.Krieg, J.Chem.Phys., 132, (2010), 154104 
   

================================================================================

----- Orbital basis set information -----
Your calculation utilizes the basis: def2-SVP
   F. Weigend and R. Ahlrichs, Phys. Chem. Chem. Phys. 7, 3297 (2005).

----- AuxJ basis set information -----
Your calculation utilizes the auxiliary basis: def2/J
   F. Weigend, Phys. Chem. Chem. Phys. 8, 1057 (2006).

================================================================================
                                        WARNINGS
                       Please study these warnings very carefully!
================================================================================


WARNING: your system is open-shell and RHF/RKS was chosen
  ===> : WILL SWITCH to UHF/UKS


INFO   : the flag for use of the SHARK integral package has been found!

================================================================================
                                       INPUT FILE
================================================================================
NAME = 7_0_orca.inp
|  1> ! EnGrad PBE0 RIJCOSX D3BJ def2-SVP def2/J 
|  2> %output 
|  3> xyzfile=True 
|  4> end 
|  5> %scf 
|  6> maxiter 250 
|  7> end
|  8> %output
|  9> Print[P_Hirshfeld] = 1
| 10> end
| 11> % maxcore
| 12> 4000
| 13> *xyz 0 2
| 14> O   -2.22680311  -0.87593233   1.20423313 
| 15> O   -0.65726710  -0.02131879   0.95936375 
| 16> C   -0.67195248   0.47875997  -0.33153760 
| 17> C    0.42860347   1.30423308   0.24163011 
| 18> C    1.59009591   0.48734031   0.22853012 
| 19> C    1.25493125  -0.69028531  -0.38267354 
| 20> C   -0.03450431  -0.62624739  -1.13279758 
| 21> H   -2.30840540  -0.51313895   2.09884151 
| 22> H   -1.60501191   0.94987272  -0.66548818 
| 23> H    0.29153370   2.27040570   0.72820909 
| 24> H    2.52422592   0.69605949   0.75048649 
| 25> H    1.92919235  -1.54842571  -0.44795677 
| 26> H    0.14023748  -0.38108854  -2.19541188 
| 27> H   -0.65488222  -1.53013779  -1.05544510 
| 28> *
| 29> 
| 30>                          ****END OF INPUT****
================================================================================

                     *******************************
                     * Energy+Gradient Calculation *
                     *******************************

---------------------------------
CARTESIAN COORDINATES (ANGSTROEM)
---------------------------------
  O     -2.226803   -0.875932    1.204233
  O     -0.657267   -0.021319    0.959364
  C     -0.671952    0.478760   -0.331538
  C      0.428603    1.304233    0.241630
  C      1.590096    0.487340    0.228530
  C      1.254931   -0.690285   -0.382674
  C     -0.034504   -0.626247   -1.132798
  H     -2.308405   -0.513139    2.098842
  H     -1.605012    0.949873   -0.665488
  H      0.291534    2.270406    0.728209
  H      2.524226    0.696059    0.750486
  H      1.929192   -1.548426   -0.447957
  H      0.140237   -0.381089   -2.195412
  H     -0.654882   -1.530138   -1.055445

----------------------------
CARTESIAN COORDINATES (A.U.)
----------------------------
  NO LB      ZA    FRAG     MASS         X           Y           Z
   0 O     8.0000    0    15.999   -4.208048   -1.655272    2.275671
   1 O     8.0000    0    15.999   -1.242055   -0.040287    1.812935
   2 C     6.0000    0    12.011   -1.269806    0.904725   -0.626515
   3 C     6.0000    0    12.011    0.809943    2.464643    0.456615
   4 C     6.0000    0    12.011    3.004846    0.920940    0.431859
   5 C     6.0000    0    12.011    2.371476   -1.304450   -0.723148
   6 C     6.0000    0    12.011   -0.065204   -1.183436   -2.140677
   7 H     1.0000    0     1.008   -4.362254   -0.969692    3.966236
   8 H     1.0000    0     1.008   -3.033033    1.794999   -1.257590
   9 H     1.0000    0     1.008    0.550919    4.290445    1.376116
  10 H     1.0000    0     1.008    4.770096    1.315362    1.418214
  11 H     1.0000    0     1.008    3.645645   -2.926101   -0.846516
  12 H     1.0000    0     1.008    0.265010   -0.720153   -4.148727
  13 H     1.0000    0     1.008   -1.237548   -2.891541   -1.994502

--------------------------------
INTERNAL COORDINATES (ANGSTROEM)
--------------------------------
 O      0   0   0     0.000000000000     0.00000000     0.00000000
 O      1   0   0     1.803820557234     0.00000000     0.00000000
 C      2   1   0     1.384456832848   106.76703957     0.00000000
 C      3   2   1     1.490352467774    80.42352235   162.56022435
 C      4   3   2     1.420052849578   106.36936324    80.20358884
 C      5   4   3     1.368468985469   107.38714517     3.91895838
 C      6   5   4     1.493127922844   113.51453764    14.90835627
 H      1   2   3     0.968814803702    91.21618327   221.33954115
 H      3   2   1     1.097301286342   116.60727905    43.17084885
 H      4   3   2     1.090429620500   124.71877811   269.99564074
 H      5   4   3     1.090229803237   125.89241026   192.90254593
 H      6   5   4     1.093295420829   123.44057092   186.09201056
 H      7   6   5     1.104439543601   110.86980199    93.86903661
 H      7   6   5     1.099031397454   114.63516632   218.94505414

---------------------------
INTERNAL COORDINATES (A.U.)
---------------------------
 O      0   0   0     0.000000000000     0.00000000     0.00000000
 O      1   0   0     3.408726847909     0.00000000     0.00000000
 C      2   1   0     2.616244258320   106.76703957     0.00000000
 C      3   2   1     2.816358007107    80.42352235   162.56022435
 C      4   3   2     2.683510981396   106.36936324    80.20358884
 C      5   4   3     2.586031605302   107.38714517     3.91895838
 C      6   5   4     2.821602857086   113.51453764    14.90835627
 H      1   2   3     1.830794653485    91.21618327   221.33954115
 H      3   2   1     2.073598917585   116.60727905    43.17084885
 H      4   3   2     2.060613351060   124.71877811   269.99564074
 H      5   4   3     2.060235751157   125.89241026   192.90254593
 H      6   5   4     2.066028928836   123.44057092   186.09201056
 H      7   6   5     2.087088268879   110.86980199    93.86903661
 H      7   6   5     2.076868353769   114.63516632   218.94505414

---------------------
BASIS SET INFORMATION
---------------------
There are 3 groups of distinct atoms

 Group   1 Type O   : 7s4p1d contracted to 3s2p1d pattern {511/31/1}
 Group   2 Type C   : 7s4p1d contracted to 3s2p1d pattern {511/31/1}
 Group   3 Type H   : 4s1p contracted to 2s1p pattern {31/1}

Atom   0O    basis set group =>   1
Atom   1O    basis set group =>   1
Atom   2C    basis set group =>   2
Atom   3C    basis set group =>   2
Atom   4C    basis set group =>   2
Atom   5C    basis set group =>   2
Atom   6C    basis set group =>   2
Atom   7H    basis set group =>   3
Atom   8H    basis set group =>   3
Atom   9H    basis set group =>   3
Atom  10H    basis set group =>   3
Atom  11H    basis set group =>   3
Atom  12H    basis set group =>   3
Atom  13H    basis set group =>   3
---------------------------------
AUXILIARY/J BASIS SET INFORMATION
---------------------------------
There are 3 groups of distinct atoms

 Group   1 Type O   : 12s5p4d2f1g contracted to 6s4p3d1f1g pattern {711111/2111/211/2/1}
 Group   2 Type C   : 12s5p4d2f1g contracted to 6s4p3d1f1g pattern {711111/2111/211/2/1}
 Group   3 Type H   : 5s2p1d contracted to 3s1p1d pattern {311/2/1}

Atom   0O    basis set group =>   1
Atom   1O    basis set group =>   1
Atom   2C    basis set group =>   2
Atom   3C    basis set group =>   2
Atom   4C    basis set group =>   2
Atom   5C    basis set group =>   2
Atom   6C    basis set group =>   2
Atom   7H    basis set group =>   3
Atom   8H    basis set group =>   3
Atom   9H    basis set group =>   3
Atom  10H    basis set group =>   3
Atom  11H    basis set group =>   3
Atom  12H    basis set group =>   3
Atom  13H    basis set group =>   3
------------------------------------------------------------------------------
                           ORCA GTO INTEGRAL CALCULATION
                           -- RI-GTO INTEGRALS CHOSEN --
------------------------------------------------------------------------------
------------------------------------------------------------------------------
                   ___                                                        
                  /   \      - P O W E R E D   B Y -                         
                 /     \                                                     
                 |  |  |   _    _      __       _____    __    __             
                 |  |  |  | |  | |    /  \     |  _  \  |  |  /  |          
                  \  \/   | |  | |   /    \    | | | |  |  | /  /          
                 / \  \   | |__| |  /  /\  \   | |_| |  |  |/  /          
                |  |  |   |  __  | /  /__\  \  |    /   |      \           
                |  |  |   | |  | | |   __   |  |    \   |  |\   \          
                \     /   | |  | | |  |  |  |  | |\  \  |  | \   \       
                 \___/    |_|  |_| |__|  |__|  |_| \__\ |__|  \__/        
                                                                              
                      - O R C A' S   B I G   F R I E N D -                    
                                      &                                       
                       - I N T E G R A L  F E E D E R -                       
                                                                              
 v1 FN, 2020, v2 2021                                                         
------------------------------------------------------------------------------


Reading SHARK input file 7_0_orca.SHARKINP.tmp ... ok
----------------------
SHARK INTEGRAL PACKAGE
----------------------

Number of atoms                             ...     14
Number of basis functions                   ...    133
Number of shells                            ...     63
Maximum angular momentum                    ...      2
Integral batch strategy                     ... SHARK/LIBINT Hybrid
RI-J (if used) integral strategy            ... SPLIT-RIJ (Revised 2003 algorithm where possible)
Printlevel                                  ...      1
Contraction scheme used                     ... SEGMENTED contraction
Coulomb Range Separation                    ... NOT USED
Exchange Range Separation                   ... NOT USED
Finite Nucleus Model                        ... NOT USED
Auxiliary Coulomb fitting basis             ... AVAILABLE
   # of basis functions in Aux-J            ...    420
   # of shells in Aux-J                     ...    140
   Maximum angular momentum in Aux-J        ...      4
Auxiliary J/K fitting basis                 ... NOT available
Auxiliary Correlation fitting basis         ... NOT available
Auxiliary 'external' fitting basis          ... NOT available
Integral threshold                          ...     2.500000e-11
Primitive cut-off                           ...     2.500000e-12
Primitive pair pre-selection threshold      ...     2.500000e-12

Calculating pre-screening integrals         ... done (  0.0 sec) Dimension = 63
Organizing shell pair data                  ... done (  0.0 sec)
Shell pair information
Total number of shell pairs                 ...      2016
Shell pairs after pre-screening             ...      1960
Total number of primitive shell pairs       ...      7252
Primitive shell pairs kept                  ...      5372
          la=0 lb=0:    607 shell pairs
          la=1 lb=0:    717 shell pairs
          la=1 lb=1:    226 shell pairs
          la=2 lb=0:    237 shell pairs
          la=2 lb=1:    145 shell pairs
          la=2 lb=2:     28 shell pairs

Calculating one electron integrals          ... done (  0.0 sec)
Calculating RI/J V-Matrix + Cholesky decomp.... done (  0.1 sec)
Calculating Nuclear repulsion               ... done (  0.0 sec) ENN=    303.253684178684 Eh

SHARK setup successfully completed in   0.5 seconds

Maximum memory used throughout the entire GTOINT-calculation: 17.0 MB
-------------------------------------------------------------------------------
                                 ORCA SCF
-------------------------------------------------------------------------------

------------
SCF SETTINGS
------------
Hamiltonian:
 Density Functional     Method          .... DFT(GTOs)
 Exchange Functional    Exchange        .... PBE
   PBE kappa parameter   XKappa         ....  0.804000
   PBE mue parameter    XMuePBE         ....  0.219520
 Correlation Functional Correlation     .... PBE
   PBE beta parameter  CBetaPBE         ....  0.066725
 LDA part of GGA corr.  LDAOpt          .... PW91-LDA
 Gradients option       PostSCFGGA      .... off
 Hybrid DFT is turned on
   Fraction HF Exchange ScalHFX         ....  0.250000
   Scaling of DF-GGA-X  ScalDFX         ....  0.750000
   Scaling of DF-GGA-C  ScalDFC         ....  1.000000
   Scaling of DF-LDA-C  ScalLDAC        ....  1.000000
   Perturbative correction              ....  0.000000
   Density functional embedding theory  .... OFF
   NL short-range parameter             ....  6.900000
 RI-approximation to the Coulomb term is turned on
   Number of AuxJ basis functions       .... 420
   RIJ-COSX (HFX calculated with COS-X)).... on


General Settings:
 Integral files         IntName         .... 7_0_orca
 Hartree-Fock type      HFTyp           .... UHF
 Total Charge           Charge          ....    0
 Multiplicity           Mult            ....    2
 Number of Electrons    NEL             ....   53
 Basis Dimension        Dim             ....  133
 Nuclear Repulsion      ENuc            ....    303.2536841787 Eh

Convergence Acceleration:
 DIIS                   CNVDIIS         .... on
   Start iteration      DIISMaxIt       ....    12
   Startup error        DIISStart       ....  0.200000
   # of expansion vecs  DIISMaxEq       ....     5
   Bias factor          DIISBfac        ....   1.050
   Max. coefficient     DIISMaxC        ....  10.000
 Trust-Rad. Augm. Hess. CNVTRAH         .... auto
   Auto Start mean grad. ratio tolernc. ....  1.125000
   Auto Start start iteration           ....    20
   Auto Start num. interpolation iter.  ....    10
   Max. Number of Micro iterations      ....    16
   Max. Number of Macro iterations      .... Maxiter - #DIIS iter
   Number of Davidson start vectors     ....     2
   Converg. threshold I  (grad. norm)   ....   1.000e-05
   Converg. threshold II (energy diff.) ....   1.000e-08
   Grad. Scal. Fac. for Micro threshold ....   0.100
   Minimum threshold for Micro iter.    ....   0.010
   NR start threshold (gradient norm)   ....   0.001
   Initial trust radius                 ....   0.400
   Minimum AH scaling param. (alpha)    ....   1.000
   Maximum AH scaling param. (alpha)    .... 1000.000
   Orbital update algorithm             .... Taylor
   White noise on init. David. guess    .... on
   Maximum white noise                  ....   0.010
   Quad. conv. algorithm                .... NR
 SOSCF                  CNVSOSCF        .... off
 Level Shifting         CNVShift        .... on
   Level shift para.    LevelShift      ....    0.2500
   Turn off err/grad.   ShiftErr        ....    0.0010
 Zerner damping         CNVZerner       .... off
 Static damping         CNVDamp         .... on
   Fraction old density DampFac         ....    0.7000
   Max. Damping (<1)    DampMax         ....    0.9800
   Min. Damping (>=0)   DampMin         ....    0.0000
   Turn off err/grad.   DampErr         ....    0.1000
 Fernandez-Rico         CNVRico         .... off

SCF Procedure:
 Maximum # iterations   MaxIter         ....   250
 SCF integral mode      SCFMode         .... Direct
   Integral package                     .... SHARK and LIBINT hybrid scheme
 Reset frequency        DirectResetFreq ....    20
 Integral Threshold     Thresh          ....  2.500e-11 Eh
 Primitive CutOff       TCut            ....  2.500e-12 Eh

Convergence Tolerance:
 Convergence Check Mode ConvCheckMode   .... Total+1el-Energy
 Convergence forced     ConvForced      .... 0
 Energy Change          TolE            ....  1.000e-08 Eh
 1-El. energy change                    ....  1.000e-05 Eh
 DIIS Error             TolErr          ....  5.000e-07


Diagonalization of the overlap matrix:
Smallest eigenvalue                        ... 7.958e-04
Time for diagonalization                   ...    0.021 sec
Threshold for overlap eigenvalues          ... 1.000e-08
Number of eigenvalues below threshold      ... 0
Time for construction of square roots      ...    0.001 sec
Total time needed                          ...    0.022 sec

Time for model grid setup =    0.136 sec

------------------------------
INITIAL GUESS: MODEL POTENTIAL
------------------------------
Loading Hartree-Fock densities                     ... done
Calculating cut-offs                               ... done
Initializing the effective Hamiltonian             ... done
Setting up the integral package (SHARK)            ... done
Starting the Coulomb interaction                   ... done (   0.1 sec)
Reading the grid                                   ... done
Mapping shells                                     ... done
Starting the XC term evaluation                    ... done (   0.1 sec)
  promolecular density results
     # of electrons  =     52.994758084
     EX              =    -43.860108682
     EC              =     -1.755599782
     EX+EC           =    -45.615708464
Transforming the Hamiltonian                       ... done (   0.0 sec)
Diagonalizing the Hamiltonian                      ... done (   0.0 sec)
Back transforming the eigenvectors                 ... done (   0.0 sec)
Now organizing SCF variables                       ... done
                      ------------------
                      INITIAL GUESS DONE (   0.4 sec)
                      ------------------
-------------------
DFT GRID GENERATION
-------------------

General Integration Accuracy     IntAcc      ... 4.388
Radial Grid Type                 RadialGrid  ... OptM3 with GC (2021)
Angular Grid (max. ang.)         AngularGrid ... 4 (Lebedev-302)
Angular grid pruning method      GridPruning ... 4 (adaptive)
Weight generation scheme         WeightScheme... Becke
Basis function cutoff            BFCut       ... 1.0000e-11
Integration weight cutoff        WCut        ... 1.0000e-14
Angular grids for H and He will be reduced by one unit
Partially contracted basis set               ... off
Rotationally invariant grid construction     ... off

Total number of grid points                  ...    64845
Total number of batches                      ...     1021
Average number of points per batch           ...       63
Average number of grid points per atom       ...     4632
Time for grid setup =    0.491 sec

--------------------
COSX GRID GENERATION
--------------------

GRIDX 1
-------
General Integration Accuracy     IntAcc      ... 3.816
Radial Grid Type                 RadialGrid  ... OptM3 with GC (2021)
Angular Grid (max. ang.)         AngularGrid ... 1 (Lebedev-50)
Angular grid pruning method      GridPruning ... 4 (adaptive)
Weight generation scheme         WeightScheme... Becke
Basis function cutoff            BFCut       ... 1.0000e-11
Integration weight cutoff        WCut        ... 1.0000e-14
Angular grids for H and He will be reduced by one unit
Partially contracted basis set               ... on
Rotationally invariant grid construction     ... off

Total number of grid points                  ...     8303
Total number of batches                      ...      136
Average number of points per batch           ...       61
Average number of grid points per atom       ...      593
UseSFitting                                  ... on

GRIDX 2
-------
General Integration Accuracy     IntAcc      ... 4.020
Radial Grid Type                 RadialGrid  ... OptM3 with GC (2021)
Angular Grid (max. ang.)         AngularGrid ... 2 (Lebedev-110)
Angular grid pruning method      GridPruning ... 4 (adaptive)
Weight generation scheme         WeightScheme... Becke
Basis function cutoff            BFCut       ... 1.0000e-11
Integration weight cutoff        WCut        ... 1.0000e-14
Angular grids for H and He will be reduced by one unit
Partially contracted basis set               ... on
Rotationally invariant grid construction     ... off

Total number of grid points                  ...    18046
Total number of batches                      ...      289
Average number of points per batch           ...       62
Average number of grid points per atom       ...     1289
UseSFitting                                  ... on

GRIDX 3
-------
General Integration Accuracy     IntAcc      ... 4.338
Radial Grid Type                 RadialGrid  ... OptM3 with GC (2021)
Angular Grid (max. ang.)         AngularGrid ... 3 (Lebedev-194)
Angular grid pruning method      GridPruning ... 4 (adaptive)
Weight generation scheme         WeightScheme... Becke
Basis function cutoff            BFCut       ... 1.0000e-11
Integration weight cutoff        WCut        ... 1.0000e-14
Angular grids for H and He will be reduced by one unit
Partially contracted basis set               ... on
Rotationally invariant grid construction     ... off

Total number of grid points                  ...    39626
Total number of batches                      ...      625
Average number of points per batch           ...       63
Average number of grid points per atom       ...     2830
UseSFitting                                  ... on

Time for X-Grid setup             =    0.562 sec

--------------
SCF ITERATIONS
--------------
ITER       Energy         Delta-E        Max-DP      RMS-DP      [F,P]     Damp
               ***  Starting incremental Fock matrix formation  ***
  0   -344.1481128174   0.000000000000 0.05454910  0.00139909  0.1426857 0.7000
  1   -344.2319945344  -0.083881717026 0.03203105  0.00093063  0.0500610 0.7000
                               ***Turning on DIIS***
  2   -344.2613655379  -0.029371003485 0.03234843  0.00151495  0.0166282 0.0000
  3   -344.3130285130  -0.051662975141 0.03274647  0.00079008  0.0346572 0.0000
  4   -344.3245939833  -0.011565470313 0.00974377  0.00029308  0.0154133 0.0000
  5   -344.3268024391  -0.002208455788 0.00683162  0.00015858  0.0058958 0.0000
  6   -344.3277448578  -0.000942418670 0.00883452  0.00017308  0.0062321 0.0000
  7   -344.3285684375  -0.000823579712 0.00604594  0.00015176  0.0038987 0.0000
  8   -344.3291768868  -0.000608449255 0.00866939  0.00017288  0.0036854 0.0000
  9   -344.3296594587  -0.000482571968 0.00424157  0.00009129  0.0021475 0.0000
 10   -344.3298284235  -0.000168964781 0.00385534  0.00007862  0.0014245 0.0000
 11   -344.3299220713  -0.000093647789 0.00426490  0.00009958  0.0008905 0.0000
               *** Restarting incremental Fock matrix formation ***
                                   *** Resetting DIIS ***
 12   -344.3300048978  -0.000082826522 0.00092172  0.00002485  0.0003238 0.0000
 13   -344.3300066788  -0.000001780945 0.00051548  0.00001377  0.0003486 0.0000
 14   -344.3300102814  -0.000003602643 0.00087954  0.00001174  0.0002295 0.0000
 15   -344.3300119435  -0.000001662136 0.00055090  0.00000883  0.0001640 0.0000
 16   -344.3300128153  -0.000000871767 0.00073540  0.00000939  0.0001754 0.0000
 17   -344.3300133796  -0.000000564243 0.00034076  0.00000500  0.0000533 0.0000
 18   -344.3300135197  -0.000000140191 0.00012885  0.00000181  0.0000226 0.0000
 19   -344.3300135374  -0.000000017679 0.00004472  0.00000070  0.0000082 0.0000
 20   -344.3300135412  -0.000000003783 0.00001746  0.00000031  0.0000053 0.0000
 21   -344.3300135443  -0.000000003095 0.00000698  0.00000017  0.0000033 0.0000
 22   -344.3300135454  -0.000000001081 0.00000529  0.00000010  0.0000022 0.0000
 23   -344.3300135449   0.000000000446 0.00000330  0.00000007  0.0000013 0.0000
 24   -344.3300135502  -0.000000005260 0.00000259  0.00000004  0.0000019 0.0000
                 **** Energy Check signals convergence ****

               *****************************************************
               *                     SUCCESS                       *
               *           SCF CONVERGED AFTER  25 CYCLES          *
               *****************************************************

Old exchange energy                            =    -11.166707040 Eh
New exchange energy                            =    -11.166743515 Eh
Exchange energy change after final integration =     -0.000036476 Eh
Total energy after final integration           =   -344.330050027 Eh
Final COS-X integration done in                =     5.251 sec

----------------
TOTAL SCF ENERGY
----------------

Total Energy       :         -344.33005003 Eh           -9369.69701 eV

Components:
Nuclear Repulsion  :          303.25368418 Eh            8251.95227 eV
Electronic Energy  :         -647.58373421 Eh          -17621.64928 eV
One Electron Energy:        -1069.96448014 Eh          -29115.21369 eV
Two Electron Energy:          422.38074593 Eh           11493.56442 eV
Max COSX asymmetry :            0.00000092 Eh               0.00003 eV

Virial components:
Potential Energy   :         -685.91356005 Eh          -18664.65686 eV
Kinetic Energy     :          341.58351002 Eh            9294.95985 eV
Virial Ratio       :            2.00804061


DFT components:
N(Alpha)           :       26.999994845092 electrons
N(Beta)            :       25.999989475916 electrons
N(Total)           :       52.999984321007 electrons
E(X)               :      -33.457083205663 Eh       
E(C)               :       -1.769513217523 Eh       
E(XC)              :      -35.226596423186 Eh       
DFET-embed. en.    :        0.000000000000 Eh       

---------------
SCF CONVERGENCE
---------------

  Last Energy change         ...   -1.1758e-09  Tolerance :   1.0000e-08
  Last MAX-Density change    ...    0.0000e+00  Tolerance :   1.0000e-07
  Last RMS-Density change    ...    0.0000e+00  Tolerance :   5.0000e-09
  Last DIIS Error            ...    1.0185e-06  Tolerance :   5.0000e-07

             **** THE GBW FILE WAS UPDATED (7_0_orca.gbw) ****
             **** DENSITY 7_0_orca.scfp WAS UPDATED ****
             **** ENERGY FILE WAS UPDATED (7_0_orca.en.tmp) ****
----------------------
UHF SPIN CONTAMINATION
----------------------

Warning: in a DFT calculation there is little theoretical justification to 
         calculate <S**2> as in Hartree-Fock theory. We will do it anyways
         but you should keep in mind that the values have only limited relevance

Expectation value of <S**2>     :     0.876512
Ideal value S*(S+1) for S=0.5   :     0.750000
Deviation                       :     0.126512

             **** THE GBW FILE WAS UPDATED (7_0_orca.gbw) ****
             **** DENSITY 7_0_orca.scfp WAS UPDATED ****
----------------
ORBITAL ENERGIES
----------------
                 SPIN UP ORBITALS
  NO   OCC          E(Eh)            E(eV) 
   0   1.0000     -19.239447      -523.5320 
   1   1.0000     -19.198571      -522.4197 
   2   1.0000     -10.290821      -280.0275 
   3   1.0000     -10.284617      -279.8587 
   4   1.0000     -10.257085      -279.1095 
   5   1.0000     -10.247442      -278.8471 
   6   1.0000     -10.238933      -278.6155 
   7   1.0000      -1.064591       -28.9690 
   8   1.0000      -0.949859       -25.8470 
   9   1.0000      -0.852600       -23.2004 
  10   1.0000      -0.749516       -20.3954 
  11   1.0000      -0.706154       -19.2154 
  12   1.0000      -0.585625       -15.9357 
  13   1.0000      -0.567791       -15.4504 
  14   1.0000      -0.557429       -15.1684 
  15   1.0000      -0.484032       -13.1712 
  16   1.0000      -0.466083       -12.6828 
  17   1.0000      -0.426457       -11.6045 
  18   1.0000      -0.415549       -11.3077 
  19   1.0000      -0.412139       -11.2149 
  20   1.0000      -0.401340       -10.9210 
  21   1.0000      -0.378332       -10.2949 
  22   1.0000      -0.367531       -10.0010 
  23   1.0000      -0.313163        -8.5216 
  24   1.0000      -0.298634        -8.1263 
  25   1.0000      -0.266932        -7.2636 
  26   1.0000      -0.210050        -5.7157 
  27   0.0000      -0.049363        -1.3432 
  28   0.0000       0.042260         1.1499 
  29   0.0000       0.076117         2.0712 
  30   0.0000       0.106083         2.8867 
  31   0.0000       0.115120         3.1326 
  32   0.0000       0.119934         3.2636 
  33   0.0000       0.134127         3.6498 
  34   0.0000       0.138519         3.7693 
  35   0.0000       0.146611         3.9895 
  36   0.0000       0.182186         4.9575 
  37   0.0000       0.209685         5.7058 
  38   0.0000       0.221374         6.0239 
  39   0.0000       0.276125         7.5137 
  40   0.0000       0.326022         8.8715 
  41   0.0000       0.377417        10.2700 
  42   0.0000       0.396315        10.7843 
  43   0.0000       0.440805        11.9949 
  44   0.0000       0.461309        12.5529 
  45   0.0000       0.487924        13.2771 
  46   0.0000       0.496735        13.5168 
  47   0.0000       0.527248        14.3471 
  48   0.0000       0.547856        14.9079 
  49   0.0000       0.565106        15.3773 
  50   0.0000       0.584711        15.9108 
  51   0.0000       0.607115        16.5204 
  52   0.0000       0.616176        16.7670 
  53   0.0000       0.630500        17.1568 
  54   0.0000       0.647498        17.6193 
  55   0.0000       0.656714        17.8701 
  56   0.0000       0.672057        18.2876 
  57   0.0000       0.686117        18.6702 
  58   0.0000       0.690354        18.7855 
  59   0.0000       0.700737        19.0680 
  60   0.0000       0.720759        19.6129 
  61   0.0000       0.732012        19.9191 
  62   0.0000       0.767783        20.8924 
  63   0.0000       0.801900        21.8208 
  64   0.0000       0.830473        22.5983 
  65   0.0000       0.892585        24.2885 
  66   0.0000       0.950666        25.8689 
  67   0.0000       0.982394        26.7323 
  68   0.0000       1.009610        27.4729 
  69   0.0000       1.061895        28.8956 
  70   0.0000       1.088559        29.6212 
  71   0.0000       1.113333        30.2953 
  72   0.0000       1.139796        31.0154 
  73   0.0000       1.159965        31.5643 
  74   0.0000       1.199358        32.6362 
  75   0.0000       1.267357        34.4865 
  76   0.0000       1.275492        34.7079 
  77   0.0000       1.309043        35.6209 
  78   0.0000       1.403762        38.1983 
  79   0.0000       1.469572        39.9891 
  80   0.0000       1.483822        40.3768 
  81   0.0000       1.543329        41.9961 
  82   0.0000       1.595753        43.4226 
  83   0.0000       1.604754        43.6676 
  84   0.0000       1.618644        44.0456 
  85   0.0000       1.646762        44.8107 
  86   0.0000       1.671999        45.4974 
  87   0.0000       1.702398        46.3246 
  88   0.0000       1.719466        46.7891 
  89   0.0000       1.747237        47.5447 
  90   0.0000       1.785132        48.5759 
  91   0.0000       1.815432        49.4004 
  92   0.0000       1.829608        49.7862 
  93   0.0000       1.842295        50.1314 
  94   0.0000       1.873680        50.9854 
  95   0.0000       1.893857        51.5345 
  96   0.0000       1.916330        52.1460 
  97   0.0000       1.950665        53.0803 
  98   0.0000       1.961081        53.3637 
  99   0.0000       2.004643        54.5491 
 100   0.0000       2.037049        55.4309 
 101   0.0000       2.064337        56.1735 
 102   0.0000       2.077637        56.5354 
 103   0.0000       2.108115        57.3647 
 104   0.0000       2.231160        60.7130 
 105   0.0000       2.250953        61.2516 
 106   0.0000       2.280709        62.0612 
 107   0.0000       2.325515        63.2805 
 108   0.0000       2.370514        64.5050 
 109   0.0000       2.382772        64.8385 
 110   0.0000       2.432405        66.1891 
 111   0.0000       2.484244        67.5997 
 112   0.0000       2.518291        68.5262 
 113   0.0000       2.600443        70.7617 
 114   0.0000       2.651274        72.1448 
 115   0.0000       2.694656        73.3253 
 116   0.0000       2.705017        73.6072 
 117   0.0000       2.708423        73.6999 
 118   0.0000       2.742685        74.6323 
 119   0.0000       2.771667        75.4209 
 120   0.0000       2.820331        76.7451 
 121   0.0000       2.851213        77.5854 
 122   0.0000       2.924554        79.5811 
 123   0.0000       2.970416        80.8291 
 124   0.0000       3.017998        82.1239 
 125   0.0000       3.032358        82.5147 
 126   0.0000       3.076932        83.7276 
 127   0.0000       3.087422        84.0130 
 128   0.0000       3.163870        86.0933 
 129   0.0000       3.203571        87.1736 
 130   0.0000       3.426538        93.2408 
 131   0.0000       3.463692        94.2518 
 132   0.0000       3.761380       102.3523 

                 SPIN DOWN ORBITALS
  NO   OCC          E(Eh)            E(eV) 
   0   1.0000     -19.241325      -523.5831 
   1   1.0000     -19.181790      -521.9630 
   2   1.0000     -10.291349      -280.0418 
   3   1.0000     -10.278582      -279.6944 
   4   1.0000     -10.251065      -278.9457 
   5   1.0000     -10.249590      -278.9055 
   6   1.0000     -10.239400      -278.6282 
   7   1.0000      -1.064746       -28.9732 
   8   1.0000      -0.912662       -24.8348 
   9   1.0000      -0.845044       -22.9948 
  10   1.0000      -0.746702       -20.3188 
  11   1.0000      -0.697880       -18.9903 
  12   1.0000      -0.581911       -15.8346 
  13   1.0000      -0.565786       -15.3958 
  14   1.0000      -0.552556       -15.0358 
  15   1.0000      -0.476507       -12.9664 
  16   1.0000      -0.463338       -12.6081 
  17   1.0000      -0.418390       -11.3850 
  18   1.0000      -0.413554       -11.2534 
  19   1.0000      -0.407934       -11.1005 
  20   1.0000      -0.393742       -10.7143 
  21   1.0000      -0.375176       -10.2091 
  22   1.0000      -0.350117        -9.5272 
  23   1.0000      -0.296639        -8.0719 
  24   1.0000      -0.271057        -7.3758 
  25   1.0000      -0.252706        -6.8765 
  26   0.0000      -0.079719        -2.1693 
  27   0.0000      -0.015382        -0.4186 
  28   0.0000       0.059161         1.6098 
  29   0.0000       0.077686         2.1140 
  30   0.0000       0.108872         2.9626 
  31   0.0000       0.117839         3.2066 
  32   0.0000       0.123318         3.3557 
  33   0.0000       0.136328         3.7097 
  34   0.0000       0.140761         3.8303 
  35   0.0000       0.148358         4.0370 
  36   0.0000       0.184634         5.0241 
  37   0.0000       0.212275         5.7763 
  38   0.0000       0.223762         6.0889 
  39   0.0000       0.280790         7.6407 
  40   0.0000       0.327773         8.9192 
  41   0.0000       0.382250        10.4015 
  42   0.0000       0.395565        10.7639 
  43   0.0000       0.447861        12.1869 
  44   0.0000       0.465723        12.6730 
  45   0.0000       0.493975        13.4418 
  46   0.0000       0.505667        13.7599 
  47   0.0000       0.541068        14.7232 
  48   0.0000       0.550062        14.9679 
  49   0.0000       0.573480        15.6052 
  50   0.0000       0.592294        16.1171 
  51   0.0000       0.611386        16.6367 
  52   0.0000       0.622472        16.9383 
  53   0.0000       0.634719        17.2716 
  54   0.0000       0.653784        17.7904 
  55   0.0000       0.662957        18.0400 
  56   0.0000       0.674563        18.3558 
  57   0.0000       0.687054        18.6957 
  58   0.0000       0.692993        18.8573 
  59   0.0000       0.702429        19.1141 
  60   0.0000       0.723003        19.6739 
  61   0.0000       0.734317        19.9818 
  62   0.0000       0.771087        20.9824 
  63   0.0000       0.805661        21.9232 
  64   0.0000       0.833700        22.6861 
  65   0.0000       0.894105        24.3298 
  66   0.0000       0.960899        26.1474 
  67   0.0000       1.009904        27.4809 
  68   0.0000       1.014653        27.6101 
  69   0.0000       1.070177        29.1210 
  70   0.0000       1.093560        29.7573 
  71   0.0000       1.120174        30.4815 
  72   0.0000       1.144322        31.1386 
  73   0.0000       1.164853        31.6973 
  74   0.0000       1.204008        32.7627 
  75   0.0000       1.274625        34.6843 
  76   0.0000       1.292207        35.1627 
  77   0.0000       1.320039        35.9201 
  78   0.0000       1.408014        38.3140 
  79   0.0000       1.469901        39.9980 
  80   0.0000       1.484885        40.4058 
  81   0.0000       1.551142        42.2087 
  82   0.0000       1.597340        43.4658 
  83   0.0000       1.606080        43.7037 
  84   0.0000       1.622111        44.1399 
  85   0.0000       1.653631        44.9976 
  86   0.0000       1.675917        45.6040 
  87   0.0000       1.702512        46.3277 
  88   0.0000       1.723291        46.8931 
  89   0.0000       1.751555        47.6622 
  90   0.0000       1.787490        48.6401 
  91   0.0000       1.818980        49.4970 
  92   0.0000       1.832365        49.8612 
  93   0.0000       1.848182        50.2916 
  94   0.0000       1.875151        51.0255 
  95   0.0000       1.900274        51.7091 
  96   0.0000       1.921902        52.2976 
  97   0.0000       1.959290        53.3150 
  98   0.0000       1.968055        53.5535 
  99   0.0000       2.008706        54.6597 
 100   0.0000       2.041193        55.5437 
 101   0.0000       2.071510        56.3687 
 102   0.0000       2.078332        56.5543 
 103   0.0000       2.108418        57.3730 
 104   0.0000       2.236327        60.8536 
 105   0.0000       2.259378        61.4808 
 106   0.0000       2.287087        62.2348 
 107   0.0000       2.333910        63.5089 
 108   0.0000       2.376826        64.6767 
 109   0.0000       2.393308        65.1252 
 110   0.0000       2.434585        66.2484 
 111   0.0000       2.488681        67.7205 
 112   0.0000       2.525027        68.7095 
 113   0.0000       2.609313        71.0030 
 114   0.0000       2.660859        72.4056 
 115   0.0000       2.704193        73.5848 
 116   0.0000       2.707033        73.6621 
 117   0.0000       2.721762        74.0629 
 118   0.0000       2.761141        75.1345 
 119   0.0000       2.774967        75.5107 
 120   0.0000       2.821590        76.7794 
 121   0.0000       2.852705        77.6261 
 122   0.0000       2.924888        79.5903 
 123   0.0000       2.987779        81.3016 
 124   0.0000       3.032470        82.5177 
 125   0.0000       3.047313        82.9216 
 126   0.0000       3.080390        83.8217 
 127   0.0000       3.090737        84.1032 
 128   0.0000       3.167231        86.1847 
 129   0.0000       3.221582        87.6637 
 130   0.0000       3.428023        93.2812 
 131   0.0000       3.461560        94.1938 
 132   0.0000       3.775400       102.7339 

                    ********************************
                    * MULLIKEN POPULATION ANALYSIS *
                    ********************************

--------------------------------------------
MULLIKEN ATOMIC CHARGES AND SPIN POPULATIONS
--------------------------------------------
   0 O :   -0.282094    0.588234
   1 O :   -0.301594   -0.128368
   2 C :    0.041046   -0.038119
   3 C :    0.018004    0.410492
   4 C :    0.006067   -0.267138
   5 C :   -0.085912    0.495605
   6 C :    0.121115   -0.038185
   7 H :    0.170013   -0.013054
   8 H :    0.043910    0.003851
   9 H :    0.060561   -0.019227
  10 H :    0.038172    0.009861
  11 H :    0.038764   -0.024462
  12 H :    0.057365    0.015635
  13 H :    0.074584    0.004877
Sum of atomic charges         :   -0.0000000
Sum of atomic spin populations:    1.0000000

-----------------------------------------------------
MULLIKEN REDUCED ORBITAL CHARGES AND SPIN POPULATIONS
-----------------------------------------------------
CHARGE
  0 O s       :     3.844460  s :     3.844460
      pz      :     1.387246  p :     4.429627
      px      :     1.357020
      py      :     1.685361
      dz2     :     0.003478  d :     0.008007
      dxz     :     0.000500
      dyz     :     0.002176
      dx2y2   :     0.000633
      dxy     :     0.001219
  1 O s       :     3.910519  s :     3.910519
      pz      :     1.399069  p :     4.375121
      px      :     1.474558
      py      :     1.501493
      dz2     :     0.005499  d :     0.015954
      dxz     :     0.002587
      dyz     :     0.003760
      dx2y2   :     0.001419
      dxy     :     0.002689
  2 C s       :     3.184545  s :     3.184545
      pz      :     0.759026  p :     2.694136
      px      :     0.988694
      py      :     0.946416
      dz2     :     0.022333  d :     0.080274
      dxz     :     0.016011
      dyz     :     0.021385
      dx2y2   :     0.007584
      dxy     :     0.012960
  3 C s       :     3.242527  s :     3.242527
      pz      :     0.954146  p :     2.701063
      px      :     0.908594
      py      :     0.838323
      dz2     :     0.003269  d :     0.038406
      dxz     :     0.007176
      dyz     :     0.006832
      dx2y2   :     0.009466
      dxy     :     0.011664
  4 C s       :     3.165729  s :     3.165729
      pz      :     0.975318  p :     2.792110
      px      :     0.865336
      py      :     0.951456
      dz2     :     0.004376  d :     0.036094
      dxz     :     0.006463
      dyz     :     0.005786
      dx2y2   :     0.009057
      dxy     :     0.010412
  5 C s       :     3.232834  s :     3.232834
      pz      :     0.919519  p :     2.816355
      px      :     0.967670
      py      :     0.929167
      dz2     :     0.006294  d :     0.036723
      dxz     :     0.005561
      dyz     :     0.005587
      dx2y2   :     0.008157
      dxy     :     0.011126
  6 C s       :     2.947005  s :     2.947005
      pz      :     0.945204  p :     2.897007
      px      :     0.941744
      py      :     1.010059
      dz2     :     0.008735  d :     0.034873
      dxz     :     0.006923
      dyz     :     0.004903
      dx2y2   :     0.006383
      dxy     :     0.007928
  7 H s       :     0.763062  s :     0.763062
      pz      :     0.032108  p :     0.066925
      px      :     0.013919
      py      :     0.020898
  8 H s       :     0.934692  s :     0.934692
      pz      :     0.003445  p :     0.021398
      px      :     0.012629
      py      :     0.005324
  9 H s       :     0.915797  s :     0.915797
      pz      :     0.007176  p :     0.023642
      px      :     0.003142
      py      :     0.013324
 10 H s       :     0.937919  s :     0.937919
      pz      :     0.007454  p :     0.023909
      px      :     0.012612
      py      :     0.003843
 11 H s       :     0.937622  s :     0.937622
      pz      :     0.004376  p :     0.023614
      px      :     0.008140
      py      :     0.011097
 12 H s       :     0.919571  s :     0.919571
      pz      :     0.013783  p :     0.023065
      px      :     0.004535
      py      :     0.004747
 13 H s       :     0.902088  s :     0.902088
      pz      :     0.004248  p :     0.023328
      px      :     0.007715
      py      :     0.011365

SPIN
  0 O s       :     0.004386  s :     0.004386
      pz      :     0.024167  p :     0.583760
      px      :     0.378938
      py      :     0.180654
      dz2     :    -0.000178  d :     0.000089
      dxz     :     0.000160
      dyz     :     0.000146
      dx2y2   :     0.000052
      dxy     :    -0.000091
  1 O s       :     0.013923  s :     0.013923
      pz      :     0.003845  p :    -0.143971
      px      :    -0.035446
      py      :    -0.112370
      dz2     :     0.000150  d :     0.001680
      dxz     :     0.000247
      dyz     :     0.000024
      dx2y2   :     0.000053
      dxy     :     0.001206
  2 C s       :    -0.008456  s :    -0.008456
      pz      :    -0.006470  p :    -0.031547
      px      :    -0.017382
      py      :    -0.007696
      dz2     :    -0.000731  d :     0.001884
      dxz     :     0.002306
      dyz     :     0.000668
      dx2y2   :     0.000067
      dxy     :    -0.000426
  3 C s       :     0.051485  s :     0.051485
      pz      :     0.253178  p :     0.361868
      px      :     0.033713
      py      :     0.074977
      dz2     :    -0.000338  d :    -0.002861
      dxz     :    -0.001327
      dyz     :    -0.000857
      dx2y2   :    -0.000142
      dxy     :    -0.000198
  4 C s       :    -0.045641  s :    -0.045641
      pz      :    -0.140675  p :    -0.227085
      px      :    -0.031930
      py      :    -0.054480
      dz2     :     0.001138  d :     0.005588
      dxz     :     0.001116
      dyz     :     0.002013
      dx2y2   :     0.000897
      dxy     :     0.000424
  5 C s       :     0.064438  s :     0.064438
      pz      :     0.283292  p :     0.433083
      px      :     0.083186
      py      :     0.066605
      dz2     :    -0.000426  d :    -0.001917
      dxz     :    -0.000452
      dyz     :    -0.000713
      dx2y2   :    -0.000108
      dxy     :    -0.000217
  6 C s       :    -0.010988  s :    -0.010988
      pz      :    -0.008746  p :    -0.029532
      px      :    -0.017341
      py      :    -0.003445
      dz2     :     0.001379  d :     0.002334
      dxz     :     0.000339
      dyz     :     0.000246
      dx2y2   :     0.000228
      dxy     :     0.000142
  7 H s       :    -0.016655  s :    -0.016655
      pz      :     0.000430  p :     0.003601
      px      :     0.002469
      py      :     0.000702
  8 H s       :     0.003960  s :     0.003960
      pz      :    -0.000037  p :    -0.000108
      px      :    -0.000026
      py      :    -0.000046
  9 H s       :    -0.021311  s :    -0.021311
      pz      :     0.001455  p :     0.002084
      px      :     0.000005
      py      :     0.000624
 10 H s       :     0.010904  s :     0.010904
      pz      :    -0.000647  p :    -0.001043
      px      :    -0.000211
      py      :    -0.000186
 11 H s       :    -0.027035  s :    -0.027035
      pz      :     0.001681  p :     0.002573
      px      :     0.000446
      py      :     0.000446
 12 H s       :     0.015701  s :     0.015701
      pz      :    -0.000154  p :    -0.000066
      px      :     0.000080
      py      :     0.000008
 13 H s       :     0.004937  s :     0.004937
      pz      :    -0.000043  p :    -0.000061
      px      :    -0.000038
      py      :     0.000020


                     *******************************
                     * LOEWDIN POPULATION ANALYSIS *
                     *******************************

-------------------------------------------
LOEWDIN ATOMIC CHARGES AND SPIN POPULATIONS
-------------------------------------------
   0 O :   -0.186421    0.546437
   1 O :   -0.111158   -0.091600
   2 C :    0.045357   -0.010408
   3 C :    0.051129    0.312853
   4 C :   -0.044771   -0.161362
   5 C :    0.027938    0.389167
   6 C :   -0.049381   -0.007778
   7 H :    0.051362    0.004105
   8 H :    0.023225    0.002050
   9 H :    0.037142   -0.000401
  10 H :    0.036792    0.000295
  11 H :    0.028410   -0.000992
  12 H :    0.039282    0.013597
  13 H :    0.051094    0.004036

----------------------------------------------------
LOEWDIN REDUCED ORBITAL CHARGES AND SPIN POPULATIONS
----------------------------------------------------
CHARGE
  0 O s       :     3.658377  s :     3.658377
      pz      :     1.472028  p :     4.513639
      px      :     1.356977
      py      :     1.684634
      dz2     :     0.006906  d :     0.014405
      dxz     :     0.000467
      dyz     :     0.004007
      dx2y2   :     0.001033
      dxy     :     0.001992
  1 O s       :     3.647212  s :     3.647212
      pz      :     1.476481  p :     4.436486
      px      :     1.449359
      py      :     1.510646
      dz2     :     0.009566  d :     0.027459
      dxz     :     0.003841
      dyz     :     0.006810
      dx2y2   :     0.002008
      dxy     :     0.005233
  2 C s       :     2.852976  s :     2.852976
      pz      :     0.888558  p :     2.921805
      px      :     1.038027
      py      :     0.995220
      dz2     :     0.047588  d :     0.179862
      dxz     :     0.034963
      dyz     :     0.050341
      dx2y2   :     0.015395
      dxy     :     0.031575
  3 C s       :     2.912807  s :     2.912807
      pz      :     0.974927  p :     2.946075
      px      :     0.990958
      py      :     0.980190
      dz2     :     0.007721  d :     0.089989
      dxz     :     0.016313
      dyz     :     0.013181
      dx2y2   :     0.022496
      dxy     :     0.030278
  4 C s       :     2.870634  s :     2.870634
      pz      :     0.999876  p :     3.079414
      px      :     1.032901
      py      :     1.046637
      dz2     :     0.009689  d :     0.094723
      dxz     :     0.014942
      dyz     :     0.015217
      dx2y2   :     0.025457
      dxy     :     0.029419
  5 C s       :     2.891330  s :     2.891330
      pz      :     0.943865  p :     2.991518
      px      :     1.001151
      py      :     1.046502
      dz2     :     0.012896  d :     0.089214
      dxz     :     0.013385
      dyz     :     0.013344
      dx2y2   :     0.022669
      dxy     :     0.026920
  6 C s       :     2.842905  s :     2.842905
      pz      :     1.037224  p :     3.114870
      px      :     1.026336
      py      :     1.051310
      dz2     :     0.023582  d :     0.091606
      dxz     :     0.018165
      dyz     :     0.012435
      dx2y2   :     0.016871
      dxy     :     0.020554
  7 H s       :     0.765229  s :     0.765229
      pz      :     0.090777  p :     0.183409
      px      :     0.037249
      py      :     0.055383
  8 H s       :     0.908561  s :     0.908561
      pz      :     0.012924  p :     0.068214
      px      :     0.037194
      py      :     0.018096
  9 H s       :     0.889234  s :     0.889234
      pz      :     0.022566  p :     0.073624
      px      :     0.011808
      py      :     0.039250
 10 H s       :     0.893544  s :     0.893544
      pz      :     0.021610  p :     0.069664
      px      :     0.035766
      py      :     0.012287
 11 H s       :     0.900594  s :     0.900594
      pz      :     0.014266  p :     0.070996
      px      :     0.025485
      py      :     0.031246
 12 H s       :     0.893541  s :     0.893541
      pz      :     0.039528  p :     0.067177
      px      :     0.013343
      py      :     0.014306
 13 H s       :     0.880413  s :     0.880413
      pz      :     0.012056  p :     0.068494
      px      :     0.022593
      py      :     0.033844

SPIN
  0 O s       :     0.005049  s :     0.005049
      pz      :     0.018808  p :     0.541503
      px      :     0.353956
      py      :     0.168739
      dz2     :    -0.000149  d :    -0.000115
      dxz     :     0.000036
      dyz     :     0.000037
      dx2y2   :    -0.000036
      dxy     :    -0.000003
  1 O s       :     0.023501  s :     0.023501
      pz      :     0.003790  p :    -0.118237
      px      :    -0.020803
      py      :    -0.101224
      dz2     :     0.000278  d :     0.003135
      dxz     :     0.000209
      dyz     :     0.000078
      dx2y2   :     0.000181
      dxy     :     0.002390
  2 C s       :    -0.001031  s :    -0.001031
      pz      :    -0.000063  p :    -0.013923
      px      :    -0.007179
      py      :    -0.006682
      dz2     :    -0.001242  d :     0.004547
      dxz     :     0.005128
      dyz     :     0.001258
      dx2y2   :     0.000215
      dxy     :    -0.000812
  3 C s       :     0.009802  s :     0.009802
      pz      :     0.229047  p :     0.309045
      px      :     0.021492
      py      :     0.058506
      dz2     :    -0.000294  d :    -0.005994
      dxz     :    -0.002925
      dyz     :    -0.001260
      dx2y2   :    -0.000624
      dxy     :    -0.000891
  4 C s       :    -0.008797  s :    -0.008797
      pz      :    -0.110547  p :    -0.166361
      px      :    -0.021746
      py      :    -0.034068
      dz2     :     0.002480  d :     0.013796
      dxz     :     0.002551
      dyz     :     0.004621
      dx2y2   :     0.002634
      dxy     :     0.001510
  5 C s       :     0.015700  s :     0.015700
      pz      :     0.253203  p :     0.377689
      px      :     0.075297
      py      :     0.049189
      dz2     :    -0.000999  d :    -0.004221
      dxz     :    -0.000493
      dyz     :    -0.001413
      dx2y2   :    -0.000523
      dxy     :    -0.000794
  6 C s       :    -0.001992  s :    -0.001992
      pz      :    -0.003251  p :    -0.011759
      px      :    -0.007212
      py      :    -0.001297
      dz2     :     0.003437  d :     0.005973
      dxz     :     0.000936
      dyz     :     0.000648
      dx2y2   :     0.000607
      dxy     :     0.000344
  7 H s       :    -0.010672  s :    -0.010672
      pz      :     0.002908  p :     0.014777
      px      :     0.008778
      py      :     0.003092
  8 H s       :     0.002487  s :     0.002487
      pz      :    -0.000016  p :    -0.000438
      px      :    -0.000157
      py      :    -0.000264
  9 H s       :    -0.009762  s :    -0.009762
      pz      :     0.005872  p :     0.009361
      px      :     0.000536
      py      :     0.002953
 10 H s       :     0.004827  s :     0.004827
      pz      :    -0.002680  p :    -0.004531
      px      :    -0.001014
      py      :    -0.000838
 11 H s       :    -0.011946  s :    -0.011946
      pz      :     0.006536  p :     0.010954
      px      :     0.002291
      py      :     0.002127
 12 H s       :     0.013980  s :     0.013980
      pz      :    -0.000362  p :    -0.000383
      px      :    -0.000012
      py      :    -0.000009
 13 H s       :     0.004370  s :     0.004370
      pz      :    -0.000119  p :    -0.000335
      px      :    -0.000095
      py      :    -0.000121


                      *****************************
                      * MAYER POPULATION ANALYSIS *
                      *****************************

  NA   - Mulliken gross atomic population
  ZA   - Total nuclear charge
  QA   - Mulliken gross atomic charge
  VA   - Mayer's total valence
  BVA  - Mayer's bonded valence
  FA   - Mayer's free valence

  ATOM       NA         ZA         QA         VA         BVA        FA
  0 O      8.2821     8.0000    -0.2821     2.0079     1.6702     0.3377
  1 O      8.3016     8.0000    -0.3016     2.0048     1.9416     0.0631
  2 C      5.9590     6.0000     0.0410     3.9438     3.9426     0.0012
  3 C      5.9820     6.0000     0.0180     3.8109     3.6935     0.1174
  4 C      5.9939     6.0000     0.0061     3.8359     3.8000     0.0360
  5 C      6.0859     6.0000    -0.0859     3.9507     3.7881     0.1626
  6 C      5.8789     6.0000     0.1211     3.7843     3.7836     0.0007
  7 H      0.8300     1.0000     0.1700     1.0118     1.0113     0.0005
  8 H      0.9561     1.0000     0.0439     1.0004     1.0003     0.0000
  9 H      0.9394     1.0000     0.0606     0.9917     0.9912     0.0005
 10 H      0.9618     1.0000     0.0382     0.9879     0.9878     0.0001
 11 H      0.9612     1.0000     0.0388     0.9887     0.9880     0.0008
 12 H      0.9426     1.0000     0.0574     0.9789     0.9787     0.0003
 13 H      0.9254     1.0000     0.0746     0.9973     0.9973     0.0000

  Mayer bond orders larger than 0.100000
B(  0-O ,  1-O ) :   0.4747 B(  0-O ,  7-H ) :   0.9855 B(  1-O ,  2-C ) :   0.9075 
B(  1-O ,  3-C ) :   0.4370 B(  2-C ,  3-C ) :   0.9667 B(  2-C ,  6-C ) :   1.0026 
B(  2-C ,  8-H ) :   0.9586 B(  3-C ,  4-C ) :   1.1886 B(  3-C ,  9-H ) :   0.9958 
B(  4-C ,  5-C ) :   1.5776 B(  4-C , 10-H ) :   0.9943 B(  5-C ,  6-C ) :   0.9989 
B(  5-C , 11-H ) :   0.9759 B(  6-C , 12-H ) :   0.9260 B(  6-C , 13-H ) :   0.9270 



------------------
HIRSHFELD ANALYSIS
------------------

Total integrated alpha density =     26.999994845
Total integrated beta density  =     25.999989476

  ATOM     CHARGE      SPIN    
   0 O   -0.269021    0.526820
   1 O   -0.131193   -0.067123
   2 C    0.056382    0.003948
   3 C    0.021814    0.238182
   4 C   -0.043596   -0.082288
   5 C    0.003217    0.302551
   6 C   -0.044879    0.015313
   7 H    0.138731    0.013668
   8 H    0.044091    0.002429
   9 H    0.054855    0.015070
  10 H    0.049012   -0.006520
  11 H    0.040434    0.019289
  12 H    0.034202    0.013963
  13 H    0.045967    0.004704

  TOTAL   0.000016    1.000005

-------
TIMINGS
-------

Total SCF time: 0 days 0 hours 1 min 10 sec 

Total time                  ....      70.663 sec
Sum of individual times     ....      70.483 sec  ( 99.7%)

Fock matrix formation       ....      68.485 sec  ( 96.9%)
  Split-RI-J                ....       4.257 sec  (  6.2% of F)
  Chain of spheres X        ....      46.340 sec  ( 67.7% of F)
  XC integration            ....      17.888 sec  ( 26.1% of F)
    Basis function eval.    ....       5.227 sec  ( 29.2% of XC)
    Density eval.           ....       4.906 sec  ( 27.4% of XC)
    XC-Functional eval.     ....       1.800 sec  ( 10.1% of XC)
    XC-Potential eval.      ....       5.549 sec  ( 31.0% of XC)
Diagonalization             ....       0.113 sec  (  0.2%)
Density matrix formation    ....       0.009 sec  (  0.0%)
Population analysis         ....       0.389 sec  (  0.5%)
Initial guess               ....       0.268 sec  (  0.4%)
Orbital Transformation      ....       0.000 sec  (  0.0%)
Orbital Orthonormalization  ....       0.000 sec  (  0.0%)
DIIS solution               ....       0.029 sec  (  0.0%)
Grid generation             ....       1.190 sec  (  1.7%)

Maximum memory used throughout the entire SCF-calculation: 63.7 MB


-------------------------------------------------------------------------------
                          DFT DISPERSION CORRECTION                            
                                                                               
                              DFTD3 V3.1  Rev 1                                
                          USING Becke-Johnson damping                          
-------------------------------------------------------------------------------
The PBE0 functional is recognized
Active option DFTDOPT                   ...         4   

molecular C6(AA) [au] = 1748.146148 


            DFT-D V3
 parameters
 s6 scaling factor         :     1.0000 
 a1 scaling factor         :     0.4145 
 s8 scaling factor         :     1.2177 
 a2 scaling factor         :     4.8593 
 ad hoc parameters k1-k3   :    16.0000     1.3333    -4.0000 

 Edisp/kcal,au: -6.245707429963  -0.009953167278 
 E6   /kcal   :  -3.970522067 
 E8   /kcal   :  -2.275185363 
 % E8         :  36.427984959 

-------------------------   ----------------
Dispersion correction           -0.009953167
-------------------------   ----------------


-------------------------   --------------------
FINAL SINGLE POINT ENERGY      -344.340003194441
-------------------------   --------------------

------------------------------------------------------------------------------
                         ORCA SCF GRADIENT CALCULATION
------------------------------------------------------------------------------

 ... reading COSX grid (gridx3)
Gradient of the Kohn-Sham DFT energy:
Kohn-Sham wavefunction type      ... UKS
Hartree-Fock exchange scaling    ...    0.250
Number of operators              ...    2
Number of atoms                  ...   14
Basis set dimensions             ...  133
Integral neglect threshold       ... 2.5e-11
Integral primitive cutoff        ... 2.5e-12
SHARK Integral package           ... ON

Nuc. rep. gradient       (SHARK) ... done (  0.0 sec)
HCore & Overlap gradient (SHARK) ... done (  0.1 sec)
RI-J gradient            (SHARK) ... done (  0.6 sec)
COSX-gradient                    ... done (  6.9 sec)
Exchange-correlation gradient    ... done
Dispersion correction            ... done

------------------
CARTESIAN GRADIENT
------------------

   1   O   :   -0.001664012    0.000941843    0.001804403
   2   O   :    0.034497067   -0.021401055   -0.027890194
   3   C   :   -0.004881898    0.002296707   -0.000823924
   4   C   :    0.000493504    0.005448059   -0.001410248
   5   C   :    0.002275584    0.002051181    0.002604202
   6   C   :   -0.033068218    0.010087818    0.021026285
   7   C   :    0.001029973   -0.004043930    0.003691685
   8   H   :   -0.000221884    0.000853965    0.000583884
   9   H   :    0.000923497    0.000316544   -0.001093534
  10   H   :    0.000794108    0.001101679    0.000247151
  11   H   :    0.000173137   -0.000150185    0.000183854
  12   H   :   -0.000063779   -0.000048273   -0.000449007
  13   H   :    0.000276607    0.001918503    0.001184643
  14   H   :   -0.000711570    0.000542773    0.000531019

Difference to translation invariance:
           :   -0.0001478841   -0.0000843708    0.0001902206

Difference to rotation invariance:
           :    0.0002838553    0.0001490963   -0.0003990120

Norm of the cartesian gradient     ...    0.0647365850
RMS gradient                       ...    0.0099890719
MAX gradient                       ...    0.0344970673

-------
TIMINGS
-------

Total SCF gradient time            ...       11.817 sec

One electron gradient       ....       0.099 sec  (  0.8%)
RI-J Coulomb gradient       ....       0.626 sec  (  5.3%)
COSX gradient               ....       6.895 sec  ( 58.4%)
XC gradient                 ....       3.879 sec  ( 32.8%)

Maximum memory used throughout the entire SCFGRAD-calculation: 50.5 MB

                            ***************************************
                            *     ORCA property calculations      *
                            ***************************************

                                    ---------------------
                                    Active property flags
                                    ---------------------
   (+) Dipole Moment


------------------------------------------------------------------------------
                       ORCA ELECTRIC PROPERTIES CALCULATION
------------------------------------------------------------------------------

Dipole Moment Calculation                       ... on
Quadrupole Moment Calculation                   ... off
Polarizability Calculation                      ... off
GBWName                                         ... 7_0_orca.gbw
Electron density                                ... 7_0_orca.scfp
The origin for moment calculation is the CENTER OF MASS  = (-0.285788, -0.056361  0.329576)

-------------
DIPOLE MOMENT
-------------
                                X             Y             Z
Electronic contribution:     -0.60101       0.55920       1.58357
Nuclear contribution   :      1.25230       0.13052      -1.85664
                        -----------------------------------------
Total Dipole Moment    :      0.65128       0.68972      -0.27306
                        -----------------------------------------
Magnitude (a.u.)       :      0.98714
Magnitude (Debye)      :      2.50911



--------------------
Rotational spectrum 
--------------------
 
Rotational constants in cm-1:     0.170437     0.075788     0.066753 
Rotational constants in MHz :  5109.572278  2272.067266  2001.201743 

 Dipole components along the rotational axes: 
x,y,z [a.u.] :     0.844978    -0.400576     0.316227 
x,y,z [Debye]:     2.147762    -1.018183     0.803785 

 

Timings for individual modules:

Sum of individual times         ...       83.344 sec (=   1.389 min)
GTO integral calculation        ...        0.732 sec (=   0.012 min)   0.9 %
SCF iterations                  ...       70.766 sec (=   1.179 min)  84.9 %
SCF Gradient evaluation         ...       11.846 sec (=   0.197 min)  14.2 %
                             ****ORCA TERMINATED NORMALLY****
TOTAL RUN TIME: 0 days 0 hours 1 minutes 23 seconds 502 msec
